# 3D starting configuration for LAMMPS created with a script available at
# https://github.com/Zirbo/IPCsim/tree/master/lammps

             432 atoms
             324 bonds
             324 angles

               3 atom types
               1 bond types
               1 angle types

      0.00000000      5.64621617     xlo xhi
      0.00000000      5.64621617     ylo yhi
      0.00000000      5.64621617     zlo zhi

Masses
#  atomtype, mass
         1       2.4
         2       0.2

Atoms
#  atom-ID mol-ID atom-type charge    x               y               z
         1         1         1      -1.0      0.97721059      0.95346774      0.96018132
         2         1         2       0.5      1.09885358      1.04533897      1.11880874
         3         1         3       0.5      0.92818244      1.08349696      0.95295987
         4         1         3       0.5      0.90459574      0.73156729      0.80877535
         5         2         1      -1.0      2.84084402      0.98079903      0.94979272
         6         2         2       0.5      2.92173798      1.13412759      1.08524205
         7         2         3       0.5      2.88166926      0.93940664      1.05074147
         8         2         3       0.5      2.71912483      0.86886287      0.71339464
         9         3         1      -1.0      4.72293974      0.97306326      0.94626920
        10         3         2       0.5      4.72593510      1.00622101      1.16373550
        11         3         3       0.5      4.82466034      1.11661227      0.83978305
        12         3         3       0.5      4.61822377      0.79635651      0.83528905
        13         4         1      -1.0      0.94999281      2.82823514      0.99529104
        14         4         2       0.5      0.99424573      2.98123312      1.14705829
        15         4         3       0.5      1.04878110      2.85158836      1.02761630
        16         4         3       0.5      0.80695161      2.65188396      0.81119852
        17         5         1      -1.0      2.86512825      2.86646166      0.97181311
        18         5         2       0.5      3.05480485      2.95660994      1.03735757
        19         5         3       0.5      2.77130727      2.82837762      1.12943548
        20         5         3       0.5      2.76927263      2.81439741      0.74864629
        21         6         1      -1.0      4.71557181      2.85279370      0.99438644
        22         6         2       0.5      4.80295447      2.99147452      1.14112396
        23         6         3       0.5      4.84239820      2.80013236      1.00435745
        24         6         3       0.5      4.50136277      2.76677420      0.83767792
        25         7         1      -1.0      0.99273422      4.74264442      0.99568145
        26         7         2       0.5      1.05954843      4.93790509      1.07189911
        27         7         3       0.5      1.14655007      4.65083012      0.99241135
        28         7         3       0.5      0.77210415      4.63919805      0.92273390
        29         8         1      -1.0      2.84975955      4.75441054      0.96358096
        30         8         2       0.5      2.89542933      4.84498684      1.15879932
        31         8         3       0.5      2.95692386      4.84837678      0.86887448
        32         8         3       0.5      2.69692547      4.56986801      0.86306910
        33         9         1      -1.0      4.75974284      4.73956723      0.97515147
        34         9         2       0.5      4.78746304      4.94713848      1.04257377
        35         9         3       0.5      4.88609412      4.64484833      1.07012040
        36         9         3       0.5      4.60567137      4.62671487      0.81276024
        37        10         1      -1.0      0.96456388      0.96547306      2.83046681
        38        10         2       0.5      1.14825460      1.05128463      2.91587226
        39        10         3       0.5      0.91867647      1.06466778      2.90606587
        40        10         3       0.5      0.82676056      0.78046678      2.66946228
        41        11         1      -1.0      2.86740836      0.97501024      2.85537951
        42        11         2       0.5      3.00877046      1.01869795      3.01819272
        43        11         3       0.5      2.98425939      0.96389345      2.80585782
        44        11         3       0.5      2.60919523      0.94243933      2.74208798
        45        12         1      -1.0      4.73928781      0.98527571      2.83972094
        46        12         2       0.5      4.77037515      1.11026255      3.01807975
        47        12         3       0.5      4.83015668      1.06682389      2.81556760
        48        12         3       0.5      4.61733160      0.77874070      2.68551545
        49        13         1      -1.0      0.97984754      2.83269426      2.84240281
        50        13         2       0.5      1.18208289      2.91151843      2.87828613
        51        13         3       0.5      0.88600760      2.95350370      2.92730130
        52        13         3       0.5      0.87145213      2.63306065      2.72162099
        53        14         1      -1.0      2.85041263      2.83683418      2.86465244
        54        14         2       0.5      2.92109358      3.00820695      2.98312428
        55        14         3       0.5      2.95513549      2.75804032      2.93439231
        56        14         3       0.5      2.67500882      2.74425528      2.67644072
        57        15         1      -1.0      4.73266962      2.82793292      2.83880989
        58        15         2       0.5      4.73558613      3.02520018      2.93616041
        59        15         3       0.5      4.91696606      2.75214058      2.82582032
        60        15         3       0.5      4.54545666      2.70645800      2.75444894
        61        16         1      -1.0      0.94699680      4.71848231      2.83942827
        62        16         2       0.5      1.03548376      4.86328447      2.97943681
        63        16         3       0.5      1.05317179      4.66905155      2.88408284
        64        16         3       0.5      0.75233486      4.62311091      2.65476515
        65        17         1      -1.0      2.83323805      4.71559252      2.87268719
        66        17         2       0.5      2.94344915      4.89639960      2.93237231
        67        17         3       0.5      2.81488412      4.67955305      3.02171293
        68        17         3       0.5      2.74138088      4.57082492      2.66397634
        69        18         1      -1.0      4.73642583      4.70831950      2.86331202
        70        18         2       0.5      4.78706014      4.77994096      3.06507062
        71        18         3       0.5      4.87997908      4.76056884      2.76774381
        72        18         3       0.5      4.54223826      4.58444869      2.75712163
        73        19         1      -1.0      0.97003536      0.96936016      4.73051230
        74        19         2       0.5      1.12215787      0.99428917      4.88747499
        75        19         3       0.5      0.93546016      1.12520959      4.73108363
        76        19         3       0.5      0.85248806      0.78858171      4.57297828
        77        20         1      -1.0      2.82829977      0.98780639      4.73813673
        78        20         2       0.5      2.92798936      1.09824529      4.90020225
        79        20         3       0.5      2.94461278      0.93699505      4.75022837
        80        20         3       0.5      2.61229718      0.92817881      4.56397956
        81        21         1      -1.0      4.70757828      0.98265362      4.75481605
        82        21         2       0.5      4.87441173      1.02685158      4.89124603
        83        21         3       0.5      4.68282739      1.11057120      4.78835249
        84        21         3       0.5      4.56549572      0.81053809      4.58484962
        85        22         1      -1.0      0.98883319      2.85362790      4.73644879
        86        22         2       0.5      1.08080617      2.97930144      4.89184226
        87        22         3       0.5      0.98832407      2.97501708      4.67585788
        88        22         3       0.5      0.89736932      2.60656519      4.64164623
        89        23         1      -1.0      2.87121830      2.87533240      4.73746800
        90        23         2       0.5      2.88344812      2.98042992      4.93035383
        91        23         3       0.5      3.05252348      2.85292246      4.65731500
        92        23         3       0.5      2.67768330      2.79264481      4.62473518
        93        24         1      -1.0      4.73636341      2.84657455      4.74707915
        94        24         2       0.5      4.82077628      3.03850600      4.81368836
        95        24         3       0.5      4.88228218      2.78074341      4.71467668
        96        24         3       0.5      4.50603177      2.72047424      4.71287240
        97        25         1      -1.0      0.94542667      4.72025190      4.75369414
        98        25         2       0.5      1.09710477      4.86999345      4.80820308
        99        25         3       0.5      1.03906203      4.71086002      4.78380639
       100        25         3       0.5      0.70011322      4.57990224      4.66907295
       101        26         1      -1.0      2.83096486      4.73139266      4.71186325
       102        26         2       0.5      2.84489565      4.89592647      4.85724055
       103        26         3       0.5      2.87464395      4.71183381      4.81180958
       104        26         3       0.5      2.77335498      4.58641769      4.46653963
       105        27         1      -1.0      4.75361731      4.73055523      4.71961644
       106        27         2       0.5      4.94579430      4.75141334      4.82465427
       107        27         3       0.5      4.66153343      4.87216476      4.78185044
       108        27         3       0.5      4.65352421      4.56808758      4.55234462
       109        28         1      -1.0      1.88946411      1.90384763      0.96053960
       110        28         2       0.5      2.00349418      2.09152561      0.97373490
       111        28         3       0.5      1.90153568      1.82638197      1.13074397
       112        28         3       0.5      1.76336247      1.79363530      0.77713992
       113        29         1      -1.0      3.77698570      1.90758751      0.96640958
       114        29         2       0.5      3.97652362      1.97282075      1.03220656
       115        29         3       0.5      3.70762200      1.95571147      1.10338304
       116        29         3       0.5      3.64681148      1.79423033      0.76363913
       117        30         1      -1.0      5.65861163      1.90576076      0.99641036
       118        30         2       0.5      5.81707561      2.00885126      1.10893376
       119        30         3       0.5      5.62321621      2.03954159      0.94585855
       120        30         3       0.5      5.53554308      1.66888945      0.93443877
       121        31         1      -1.0      1.89456320      3.80743612      0.99059911
       122        31         2       0.5      2.04992086      3.94851211      1.05664124
       123        31         3       0.5      1.86043736      3.82241150      1.12217027
       124        31         3       0.5      1.77333139      3.65138476      0.79298582
       125        32         1      -1.0      3.77882895      3.79036297      0.94593394
       126        32         2       0.5      3.94286752      3.90157430      1.04145037
       127        32         3       0.5      3.73872850      3.90518681      0.97231475
       128        32         3       0.5      3.65489084      3.56432780      0.82403669
       129        33         1      -1.0      5.69660744      3.81738863      0.99341626
       130        33         2       0.5      5.70865457      3.99632950      1.12083302
       131        33         3       0.5      5.87225648      3.76759854      0.97118720
       132        33         3       0.5      5.50891126      3.68823785      0.88822855
       133        34         1      -1.0      1.91520144      5.69135789      0.97760981
       134        34         2       0.5      2.09442515      5.81796507      0.99340494
       135        34         3       0.5      1.83696849      5.63186023      1.15985965
       136        34         3       0.5      1.81421070      5.62424838      0.77956484
       137        35         1      -1.0      3.80771909      5.64809674      0.97482777
       138        35         2       0.5      3.87650004      5.76325819      1.14920386
       139        35         3       0.5      3.94023374      5.59389551      0.97946161
       140        35         3       0.5      3.60642350      5.58713652      0.79581782
       141        36         1      -1.0      5.65299705      5.66574716      0.94602801
       142        36         2       0.5      5.78229858      5.84084134      0.97801462
       143        36         3       0.5      5.66347672      5.58612871      1.10494198
       144        36         3       0.5      5.51321585      5.57027144      0.75512743
       145        37         1      -1.0      1.89352873      1.88748333      2.83774715
       146        37         2       0.5      2.07687227      2.00902403      2.84135334
       147        37         3       0.5      1.84160788      2.01177734      2.85764766
       148        37         3       0.5      1.76210605      1.64164861      2.81424044
       149        38         1      -1.0      3.78465477      1.90559963      2.87011247
       150        38         2       0.5      3.95688621      1.93284373      3.00425451
       151        38         3       0.5      3.71963638      1.94766648      2.98402113
       152        38         3       0.5      3.67744170      1.83628867      2.62206175
       153        39         1      -1.0      5.67375674      1.92351252      2.85080186
       154        39         2       0.5      5.73086301      2.10906238      2.95429159
       155        39         3       0.5      5.76875253      1.88010737      2.93543253
       156        39         3       0.5      5.52165468      1.78136782      2.66268145
       157        40         1      -1.0      1.90476384      3.78875716      2.83057596
       158        40         2       0.5      1.91696508      3.95922883      2.96910588
       159        40         3       0.5      1.95637914      3.79051910      2.92068558
       160        40         3       0.5      1.84094728      3.61652356      2.60193641
       161        41         1      -1.0      3.76538848      3.78000227      2.87308028
       162        41         2       0.5      3.84852331      3.97189787      2.94137873
       163        41         3       0.5      3.81143664      3.68774844      3.00807557
       164        41         3       0.5      3.63620549      3.68036051      2.66978655
       165        42         1      -1.0      5.68610807      3.80771729      2.83512242
       166        42         2       0.5      5.84528802      3.86889893      2.97411360
       167        42         3       0.5      5.69474816      3.94594846      2.76944639
       168        42         3       0.5      5.51828804      3.60830446      2.76180725
       169        43         1      -1.0      1.90437708      5.67590332      2.82985063
       170        43         2       0.5      2.02648853      5.84538361      2.89888124
       171        43         3       0.5      1.86650126      5.63364560      2.97961212
       172        43         3       0.5      1.82014145      5.54868074      2.61105854
       173        44         1      -1.0      3.78491446      5.69082095      2.85623047
       174        44         2       0.5      3.95748340      5.81959657      2.90136139
       175        44         3       0.5      3.71864472      5.71501991      3.00115171
       176        44         3       0.5      3.67861525      5.53784636      2.66617832
       177        45         1      -1.0      5.68301022      5.69867666      2.83786825
       178        45         2       0.5      5.76167917      5.86741135      2.95508515
       179        45         3       0.5      5.82180805      5.67163118      2.81507999
       180        45         3       0.5      5.46554344      5.55698746      2.74343961
       181        46         1      -1.0      1.88214576      1.92969614      4.75670082
       182        46         2       0.5      2.03596340      2.02359901      4.88288476
       183        46         3       0.5      1.80710826      1.93840012      4.87581471
       184        46         3       0.5      1.80336561      1.82708931      4.51140299
       185        47         1      -1.0      3.78258608      1.88608498      4.72759869
       186        47         2       0.5      3.99452180      1.90286142      4.78418316
       187        47         3       0.5      3.68100489      1.93853524      4.87980420
       188        47         3       0.5      3.67223155      1.81685828      4.51880871
       189        48         1      -1.0      5.66126649      1.91760223      4.75704884
       190        48         2       0.5      5.82909891      1.99116666      4.87878856
       191        48         3       0.5      5.75449643      1.94400156      4.72663122
       192        48         3       0.5      5.40020415      1.81763848      4.66572676
       193        49         1      -1.0      1.92611618      3.79578212      4.74606744
       194        49         2       0.5      1.97572595      3.99160890      4.83319231
       195        49         3       0.5      2.06183675      3.74370013      4.79432583
       196        49         3       0.5      1.74078585      3.65203733      4.61068419
       197        50         1      -1.0      3.80400473      3.79350740      4.73362734
       198        50         2       0.5      3.91758550      3.96589321      4.80967037
       199        50         3       0.5      3.77027063      3.75180992      4.87942249
       200        50         3       0.5      3.72415807      3.66281907      4.51178917
       201        51         1      -1.0      5.65522829      3.77792971      4.72408164
       202        51         2       0.5      5.79370376      3.94047530      4.77702951
       203        51         3       0.5      5.76781969      3.73449294      4.74011180
       204        51         3       0.5      5.40416141      3.65882091      4.65510360
       205        52         1      -1.0      1.91321573      5.66677156      4.75047039
       206        52         2       0.5      2.01310687      5.83209818      4.85577408
       207        52         3       0.5      2.05112354      5.59158935      4.72872386
       208        52         3       0.5      1.67541677      5.57662714      4.66691324
       209        53         1      -1.0      3.81723199      5.67226169      4.73322246
       210        53         2       0.5      3.97307457      5.71861994      4.88142505
       211        53         3       0.5      3.79019550      5.81398342      4.73985808
       212        53         3       0.5      3.68842592      5.48418172      4.57838427
       213        54         1      -1.0      5.67557425      5.66631555      4.73727259
       214        54         2       0.5      5.72137835      5.83519413      4.87062179
       215        54         3       0.5      5.83469328      5.63579065      4.68677093
       216        54         3       0.5      5.47065112      5.52796187      4.65442504
       217        55         1      -1.0      1.93818665      0.96365267      1.92075116
       218        55         2       0.5      2.10021649      1.08744360      2.00334739
       219        55         3       0.5      1.89028977      0.99243500      2.04371117
       220        55         3       0.5      1.82405370      0.81107941      1.71519491
       221        56         1      -1.0      3.77499503      0.96896660      1.89097832
       222        56         2       0.5      3.84682639      1.12044162      2.03344085
       223        56         3       0.5      3.84800810      0.98225666      1.94823292
       224        56         3       0.5      3.63015060      0.80420150      1.69126119
       225        57         1      -1.0      5.70223115      0.95526165      1.91718300
       226        57         2       0.5      5.83290321      1.05814029      2.06119966
       227        57         3       0.5      5.70994511      0.95451550      2.01367957
       228        57         3       0.5      5.56384513      0.85312916      1.67666977
       229        58         1      -1.0      1.93337729      2.85065894      1.89960888
       230        58         2       0.5      2.14765198      2.89978077      1.90817657
       231        58         3       0.5      1.83413701      2.97681766      2.01160585
       232        58         3       0.5      1.81834289      2.67537838      1.77904423
       233        59         1      -1.0      3.77875660      2.87877419      1.91318863
       234        59         2       0.5      3.78777062      3.00304631      2.09450378
       235        59         3       0.5      3.95977184      2.85981882      1.82664448
       236        59         3       0.5      3.58872733      2.77345742      1.81841761
       237        60         1      -1.0      5.67849951      2.85838847      1.91047749
       238        60         2       0.5      5.75472508      3.00348190      2.05723429
       239        60         3       0.5      5.78857828      2.90119382      1.86924195
       240        60         3       0.5      5.49219517      2.67048969      1.80495623
       241        61         1      -1.0      1.89382143      4.71945667      1.92085080
       242        61         2       0.5      2.03090205      4.88694652      1.96029762
       243        61         3       0.5      1.92772728      4.63675194      2.06176269
       244        61         3       0.5      1.72283495      4.63467154      1.74049208
       245        62         1      -1.0      3.79565879      4.76104084      1.92515861
       246        62         2       0.5      3.86654080      4.82765282      2.12248723
       247        62         3       0.5      3.91689392      4.82964880      1.86345559
       248        62         3       0.5      3.60354166      4.62582091      1.78953300
       249        63         1      -1.0      5.69715503      4.72559904      1.91510394
       250        63         2       0.5      5.87261782      4.85594902      1.94003766
       251        63         3       0.5      5.68986335      4.82233225      1.96276350
       252        63         3       0.5      5.52898393      4.49851584      1.84251065
       253        64         1      -1.0      1.90519687      0.97889441      3.78543172
       254        64         2       0.5      2.06474475      1.05258787      3.91777124
       255        64         3       0.5      1.92833112      1.06624679      3.82067442
       256        64         3       0.5      1.72251474      0.81784858      3.61784950
       257        65         1      -1.0      3.79237517      0.94448397      3.78902451
       258        65         2       0.5      3.83165370      1.15569334      3.83643550
       259        65         3       0.5      3.78497404      0.84882656      3.95519076
       260        65         3       0.5      3.76049777      0.82893202      3.57544727
       261        66         1      -1.0      5.67348192      0.96081703      3.78858732
       262        66         2       0.5      5.84427890      1.07458761      3.86786310
       263        66         3       0.5      5.65930553      1.03722488      3.86496819
       264        66         3       0.5      5.51686134      0.77063861      3.63293067
       265        67         1      -1.0      1.91710365      2.84314123      3.76845571
       266        67         2       0.5      2.01720526      3.03518725      3.80715960
       267        67         3       0.5      1.99156905      2.75790032      3.89290731
       268        67         3       0.5      1.74253664      2.73633611      3.60530022
       269        68         1      -1.0      3.79355234      2.85345193      3.80350978
       270        68         2       0.5      3.83688850      3.06079446      3.86293244
       271        68         3       0.5      3.95187997      2.75292419      3.83618166
       272        68         3       0.5      3.59188855      2.74663713      3.71141526
       273        69         1      -1.0      5.69019539      2.85964826      3.77566507
       274        69         2       0.5      5.89930435      2.91351054      3.81776370
       275        69         3       0.5      5.59742979      2.88790566      3.93659171
       276        69         3       0.5      5.57385202      2.77752857      3.57263980
       277        70         1      -1.0      1.89822523      4.74227320      3.81402393
       278        70         2       0.5      2.04524470      4.85240190      3.93508982
       279        70         3       0.5      1.88376299      4.83739109      3.85477620
       280        70         3       0.5      1.76566802      4.53702663      3.65220578
       281        71         1      -1.0      3.79750058      4.74260266      3.79155231
       282        71         2       0.5      3.96385513      4.86872844      3.86096737
       283        71         3       0.5      3.89610886      4.72190253      3.79504694
       284        71         3       0.5      3.53253773      4.63717700      3.71864263
       285        72         1      -1.0      5.69009370      4.70600857      3.80511567
       286        72         2       0.5      5.82467468      4.80999327      3.94466904
       287        72         3       0.5      5.69032882      4.74483259      3.88861220
       288        72         3       0.5      5.55527759      4.56319986      3.58206578
       289        73         1      -1.0      1.89787207      0.96489487      5.66724735
       290        73         2       0.5      1.97598104      1.15466384      5.74653624
       291        73         3       0.5      1.96690348      0.88195520      5.78404702
       292        73         3       0.5      1.75073170      0.85806557      5.47115879
       293        74         1      -1.0      3.78383058      0.96023258      5.65396743
       294        74         2       0.5      3.96931671      1.05674602      5.72237832
       295        74         3       0.5      3.75258533      1.08819234      5.65804733
       296        74         3       0.5      3.62958971      0.73575937      5.58147663
       297        75         1      -1.0      5.68962627      0.94105707      5.70231613
       298        75         2       0.5      5.75548428      1.08095057      5.85881703
       299        75         3       0.5      5.82634546      0.95756642      5.63076144
       300        75         3       0.5      5.48704908      0.78465420      5.61736993
       301        76         1      -1.0      1.91360488      2.84535736      5.68710984
       302        76         2       0.5      2.03762619      2.96746420      5.82167817
       303        76         3       0.5      1.87689885      2.92508166      5.74568795
       304        76         3       0.5      1.82628961      2.64352622      5.49396341
       305        77         1      -1.0      3.82035970      2.84116741      5.68151935
       306        77         2       0.5      3.87330447      3.04778668      5.73542043
       307        77         3       0.5      3.82505635      2.75682504      5.84156809
       308        77         3       0.5      3.76271826      2.71889051      5.46756952
       309        78         1      -1.0      5.66257641      2.83771535      5.65361326
       310        78         2       0.5      5.83236775      2.97330695      5.68804901
       311        78         3       0.5      5.58666102      2.80731321      5.82299943
       312        78         3       0.5      5.56870045      2.73252590      5.44979135
       313        79         1      -1.0      1.89241953      4.72914561      5.69556497
       314        79         2       0.5      1.93294912      4.89864837      5.82982653
       315        79         3       0.5      1.96259260      4.71466904      5.78069200
       316        79         3       0.5      1.78171686      4.57411941      5.47617637
       317        80         1      -1.0      3.80181027      4.74369647      5.66556153
       318        80         2       0.5      3.84460909      4.83976866      5.85879299
       319        80         3       0.5      3.96585576      4.73702321      5.58306323
       320        80         3       0.5      3.59496594      4.65429755      5.55482838
       321        81         1      -1.0      5.65914283      4.75520858      5.66079138
       322        81         2       0.5      5.69099973      4.92685089      5.79467214
       323        81         3       0.5      5.71338422      4.71302419      5.76552519
       324        81         3       0.5      5.57304452      4.62575067      5.42217683
       325        82         1      -1.0      0.98522426      1.92905459      1.90995162
       326        82         2       0.5      1.16080407      2.03980030      1.98280159
       327        82         3       0.5      0.94866141      1.93758336      2.04555096
       328        82         3       0.5      0.84620730      1.80978012      1.70150230
       329        83         1      -1.0      2.86188189      1.92927109      1.90794899
       330        83         2       0.5      2.93984525      2.06504936      2.06249987