# starting configuration for LAMMPS generated with a script available at
# https://github.com/Zirbo/OSPC_LAMMPS

            1728 atoms
             864 bonds

               2 atom types
               1 bond types

      0.00000000     10.48296558     xlo xhi
      0.00000000     10.48296558     ylo yhi
      0.00000000     10.48296558     zlo zhi

Masses
#  atomtype, mass
         1       2.9
         2       0.1

Atoms
#  atom-ID mol-ID atom-type charge    x               y               z
         1         1         1      -1.0      0.92019274      0.88822790      0.89477333
         2         1         2       1.0      1.08704877      1.03159244      0.89715511
         3         2         1      -1.0      2.64611389      0.90077126      0.90579509
         4         2         2       1.0      2.71122134      0.93099456      1.11375560
         5         3         1      -1.0      4.37267819      0.90336213      0.89777046
         6         3         2       1.0      4.58114055      0.92779688      0.96369759
         7         4         1      -1.0      6.16570814      0.91579498      0.89483969
         8         4         2       1.0      6.27137282      0.97716668      1.07778364
         9         5         1      -1.0      7.88834413      0.87800253      0.91530438
        10         5         2       1.0      8.05632377      0.92284457      1.05010806
        11         6         1      -1.0      9.63059787      0.89634955      0.89871700
        12         6         2       1.0      9.79634324      1.01679140      0.97885584
        13         7         1      -1.0      0.87598129      2.64030644      0.90103848
        14         7         2       1.0      1.01861959      2.77965681      0.99396743
        15         8         1      -1.0      2.64224955      2.65319354      0.89198602
        16         8         2       1.0      2.75711585      2.76336444      1.04386790
        17         9         1      -1.0      4.40412377      2.65275325      0.89698817
        18         9         2       1.0      4.57782406      2.65619807      1.03195609
        19        10         1      -1.0      6.14145396      2.64292993      0.91273496
        20        10         2       1.0      6.26040368      2.79500653      1.01820378
        21        11         1      -1.0      7.87373832      2.64619083      0.89617306
        22        11         2       1.0      8.02751535      2.80023886      0.92813911
        23        12         1      -1.0      9.64664072      2.65728170      0.90903291
        24        12         2       1.0      9.76492751      2.73391841      1.07795612
        25        13         1      -1.0      0.88020643      4.41516614      0.88930164
        26        13         2       1.0      0.97010108      4.60654018      0.95008753
        27        14         1      -1.0      2.66680010      4.37410459      0.91771221
        28        14         2       1.0      2.86149486      4.44176827      0.99462499
        29        15         1      -1.0      4.37613086      4.41624710      0.92493138
        30        15         2       1.0      4.44933832      4.62105269      0.95802732
        31        16         1      -1.0      6.15764202      4.38224180      0.87509879
        32        16         2       1.0      6.24072779      4.40116858      1.07792515
        33        17         1      -1.0      7.89817750      4.36791743      0.88155518
        34        17         2       1.0      7.96938970      4.41983175      1.08313327
        35        18         1      -1.0      9.64649249      4.37507101      0.91384728
        36        18         2       1.0      9.75281563      4.50437549      1.05659090
        37        19         1      -1.0      0.89501921      6.12702738      0.88096029
        38        19         2       1.0      1.03328828      6.25044522      0.99949173
        39        20         1      -1.0      2.62834990      6.16348074      0.88827889
        40        20         2       1.0      2.84376594      6.18736970      0.92603130
        41        21         1      -1.0      4.40319688      6.13573792      0.91208053
        42        21         2       1.0      4.43708942      6.35307134      0.91626143
        43        22         1      -1.0      6.11713380      6.14147816      0.89564541
        44        22         2       1.0      6.14355227      6.21041281      1.10288942
        45        23         1      -1.0      7.86886688      6.15890668      0.91406561
        46        23         2       1.0      7.88896281      6.34043014      1.03672525
        47        24         1      -1.0      9.62896944      6.14433988      0.88787085
        48        24         2       1.0      9.67473113      6.33069194      0.99547558
        49        25         1      -1.0      0.92103721      7.88802162      0.89679298
        50        25         2       1.0      0.93749687      7.99726534      1.08704253
        51        26         1      -1.0      2.64050914      7.90718550      0.87914323
        52        26         2       1.0      2.68555878      8.11672136      0.92879453
        53        27         1      -1.0      4.39310182      7.89518377      0.92086757
        54        27         2       1.0      4.56040076      8.03712994      0.93706471
        55        28         1      -1.0      6.13204788      7.86691799      0.89730140
        56        28         2       1.0      6.34701148      7.90063624      0.92976259
        57        29         1      -1.0      7.87824445      7.88474242      0.92204923
        58        29         2       1.0      8.03685861      7.94606812      1.06162253
        59        30         1      -1.0      9.62038461      7.89362840      0.92421688
        60        30         2       1.0      9.81115029      7.97385462      0.99886410
        61        31         1      -1.0      0.89254579      9.63776985      0.91805483
        62        31         2       1.0      1.01434935      9.69243533      1.09291357
        63        32         1      -1.0      2.65022239      9.63016065      0.90186853
        64        32         2       1.0      2.72916956      9.68640541      1.09936251
        65        33         1      -1.0      4.37207028      9.61260981      0.88828387
        66        33         2       1.0      4.48621129      9.70240069      1.05353952
        67        34         1      -1.0      6.13789224      9.65428017      0.88386242
        68        34         2       1.0      6.24681762      9.75948919      1.04344414
        69        35         1      -1.0      7.88007045      9.61077972      0.91388159
        70        35         2       1.0      8.06905277      9.66549367      1.01232988
        71        36         1      -1.0      9.61652345      9.61450426      0.90891054
        72        36         2       1.0      9.72740459      9.73541737      1.05548951
        73        37         1      -1.0      0.88375798      0.91144148      2.65739226
        74        37         2       1.0      1.01588113      1.07925316      2.71014364
        75        38         1      -1.0      2.63905777      0.88619827      2.63971160
        76        38         2       1.0      2.72186259      1.01978840      2.79365003
        77        39         1      -1.0      4.37874908      0.92277817      2.64668614
        78        39         2       1.0      4.41308937      0.93659511      2.86354978
        79        40         1      -1.0      6.16517089      0.90953490      2.67236668
        80        40         2       1.0      6.26015801      1.09920417      2.73070205
        81        41         1      -1.0      7.91248371      0.87425451      2.63575220
        82        41         2       1.0      8.12422943      0.88746233      2.69396992
        83        42         1      -1.0      9.65186118      0.90174114      2.62427869
        84        42         2       1.0      9.69353239      1.05774943      2.77369396
        85        43         1      -1.0      0.89713376      2.67001044      2.64256226
        86        43         2       1.0      1.08123930      2.72834440      2.74792971
        87        44         1      -1.0      2.62433571      2.64647770      2.62282893
        88        44         2       1.0      2.79261872      2.76095789      2.70634610
        89        45         1      -1.0      4.37950364      2.65242548      2.62314243
        90        45         2       1.0      4.51813812      2.81489831      2.67589713
        91        46         1      -1.0      6.16160764      2.67189590      2.62957920
        92        46         2       1.0      6.22481586      2.87595448      2.68216074
        93        47         1      -1.0      7.88892078      2.64618556      2.64432323
        94        47         2       1.0      7.96941266      2.71688030      2.83647762
        95        48         1      -1.0      9.64351569      2.67082471      2.66303178
        96        48         2       1.0      9.75880570      2.85806679      2.67000457
        97        49         1      -1.0      0.89577108      4.37595808      2.67018357
        98        49         2       1.0      1.07556520      4.45176094      2.77181034
        99        50         1      -1.0      2.65889061      4.38734413      2.63970746
       100        50         2       1.0      2.82558943      4.45408402      2.76681879
       101        51         1      -1.0      4.37194720      4.40416622      2.63101610
       102        51         2       1.0      4.54399604      4.45043306      2.76008421
       103        52         1      -1.0      6.13067338      4.36924001      2.63207759
       104        52         2       1.0      6.23766682      4.55164914      2.69273492
       105        53         1      -1.0      7.89807821      4.39367518      2.64512185
       106        53         2       1.0      8.00569615      4.54665608      2.76094596
       107        54         1      -1.0      9.63098173      4.37240441      2.67123892
       108        54         2       1.0      9.76952918      4.42233427      2.83467580
       109        55         1      -1.0      0.89025651      6.15805647      2.62874798
       110        55         2       1.0      1.10366530      6.20932133      2.64386762
       111        56         1      -1.0      2.63103507      6.15908612      2.65365154
       112        56         2       1.0      2.65781195      6.20533235      2.86706261
       113        57         1      -1.0      4.40471214      6.14916026      2.63106242
       114        57         2       1.0      4.58993218      6.26404688      2.66097230
       115        58         1      -1.0      6.11624907      6.14210990      2.66580222
       116        58         2       1.0      6.30510928      6.23205098      2.73393754
       117        59         1      -1.0      7.86418605      6.15691196      2.63480541
       118        59         2       1.0      7.99627367      6.16178526      2.81067216
       119        60         1      -1.0      9.65691196      6.11985465      2.64971725
       120        60         2       1.0      9.77928769      6.12733393      2.83238701
       121        61         1      -1.0      0.92381277      7.86614058      2.64689477
       122        61         2       1.0      0.93490329      7.91616712      2.86084417
       123        62         1      -1.0      2.66734983      7.89038603      2.64534944
       124        62         2       1.0      2.69758973      7.89275099      2.86324840
       125        63         1      -1.0      4.41941265      7.87531971      2.64881668
       126        63         2       1.0      4.51864169      8.07024085      2.67246712
       127        64         1      -1.0      6.12542153      7.88810343      2.66941019
       128        64         2       1.0      6.16307980      8.04032956      2.82371205
       129        65         1      -1.0      7.91459641      7.86947257      2.66465229
       130        65         2       1.0      8.07286696      7.89935204      2.81451106
       131        66         1      -1.0      9.62102652      7.91151796      2.63268400
       132        66         2       1.0      9.71530703      7.99365858      2.81369257
       133        67         1      -1.0      0.92055707      9.61119519      2.62838835
       134        67         2       1.0      1.02440803      9.74628793      2.76754627
       135        68         1      -1.0      2.63615601      9.63171248      2.66891044
       136        68         2       1.0      2.63980873      9.68436356      2.88248600
       137        69         1      -1.0      4.37626742      9.62815824      2.65684391
       138        69         2       1.0      4.48695238      9.73602355      2.81341311
       139        70         1      -1.0      6.12474970      9.62999510      2.65763264
       140        70         2       1.0      6.13222419      9.64728550      2.87682473
       141        71         1      -1.0      7.91322676      9.61013228      2.62304823
       142        71         2       1.0      8.01222999      9.63255592      2.81822902
       143        72         1      -1.0      9.61682620      9.62416708      2.65788004
       144        72         2       1.0      9.80033648      9.65284697      2.77578441
       145        73         1      -1.0      0.87973915      0.87661074      4.40376157
       146        73         2       1.0      0.97105577      1.01563761      4.54775048
       147        74         1      -1.0      2.65473094      0.91235582      4.38750595
       148        74         2       1.0      2.71985483      1.06907540      4.52749828
       149        75         1      -1.0      4.40508944      0.90862075      4.40088041
       150        75         2       1.0      4.53128431      1.06610013      4.48848805
       151        76         1      -1.0      6.13405490      0.90130580      4.41782884
       152        76         2       1.0      6.19383537      1.01108963      4.59886422
       153        77         1      -1.0      7.88831742      0.90589485      4.39588015
       154        77         2       1.0      7.97564424      0.99669551      4.57623887
       155        78         1      -1.0      9.63987434      0.89866507      4.38217257
       156        78         2       1.0      9.73979593      1.03089870      4.52684443
       157        79         1      -1.0      0.91547094      2.64783683      4.41360861
       158        79         2       1.0      0.99998561      2.73804930      4.59559482
       159        80         1      -1.0      2.67011264      2.63846453      4.38464476
       160        80         2       1.0      2.75159090      2.74562357      4.55865118
       161        81         1      -1.0      4.40375414      2.63120770      4.41420478
       162        81         2       1.0      4.56066234      2.65352792      4.56678795
       163        82         1      -1.0      6.16710002      2.64680759      4.37226682
       164        82         2       1.0      6.20509052      2.78786159      4.53676755
       165        83         1      -1.0      7.90992357      2.65357291      4.38601609
       166        83         2       1.0      8.06465222      2.77025584      4.49015127
       167        84         1      -1.0      9.65623284      2.63550150      4.37798802
       168        84         2       1.0      9.85504511      2.63553451      4.47218823
       169        85         1      -1.0      0.92514513      4.37049577      4.38579713
       170        85         2       1.0      1.07168737      4.50478340      4.48009562
       171        86         1      -1.0      2.66432928      4.41045669      4.41597498
       172        86         2       1.0      2.71664735      4.60111951      4.51246596
       173        87         1      -1.0      4.36914726      4.37528757      4.40630840
       174        87         2       1.0      4.45395637      4.57141805      4.45865576
       175        88         1      -1.0      6.13867255      4.40591089      4.36814813
       176        88         2       1.0      6.20790673      4.61397355      4.38594023
       177        89         1      -1.0      7.91080626      4.36831796      4.39032680
       178        89         2       1.0      7.91663662      4.47101870      4.58479676
       179        90         1      -1.0      9.61377506      4.38609202      4.41707256
       180        90         2       1.0      9.75286443      4.49366124      4.54929590
       181        91         1      -1.0      0.91870112      6.12913502      4.40985799
       182        91         2       1.0      1.08750999      6.17955876      4.54161918
       183        92         1      -1.0      2.65619480      6.15287666      4.40812132
       184        92         2       1.0      2.79591721      6.23751272      4.55547933
       185        93         1      -1.0      4.39485332      6.16235419      4.40300383
       186        93         2       1.0      4.49941855      6.29055314      4.54802501
       187        94         1      -1.0      6.16503079      6.11617852      4.37290915
       188        94         2       1.0      6.32172037      6.20213298      4.50120649
       189        95         1      -1.0      7.87961491      6.14598005      4.39695662
       190        95         2       1.0      8.05698235      6.27506962      4.41359011
       191        96         1      -1.0      9.65710210      6.13836980      4.39018997
       192        96         2       1.0      9.79669558      6.25390599      4.51494993
       193        97         1      -1.0      0.92213888      7.87381603      4.40148649
       194        97         2       1.0      1.02710563      8.04068565      4.49914156
       195        98         1      -1.0      2.62167226      7.86468235      4.41303351
       196        98         2       1.0      2.77713478      7.92406061      4.55692801
       197        99         1      -1.0      4.37005530      7.89056955      4.40884942
       198        99         2       1.0      4.52797171      8.00714800      4.50820672
       199       100         1      -1.0      6.13715129      7.89694968      4.41424831
       200       100         2       1.0      6.24577228      7.99593203      4.57796751
       201       101         1      -1.0      7.89655117      7.90211407      4.38594150
       202       101         2       1.0      8.04849171      7.94978936      4.53773458
       203       102         1      -1.0      9.65642521      7.89032915      4.38645848
       204       102         2       1.0      9.79510975      8.04934745      4.44874635
       205       103         1      -1.0      0.89932974      9.62826550      4.39711841
       206       103         2       1.0      0.90233608      9.72810567      4.59313602
       207       104         1      -1.0      2.66827103      9.63569200      4.40372553
       208       104         2       1.0      2.85221751      9.69246638      4.51021665
       209       105         1      -1.0      4.36857287      9.63910601      4.41178505
       210       105         2       1.0      4.54393774      9.65742209      4.54335892
       211       106         1      -1.0      6.16168221      9.65550292      4.37849020
       212       106         2       1.0      6.16423010      9.82111812      4.52328354
       213       107         1      -1.0      7.89829157      9.64268933      4.38768226
       214       107         2       1.0      8.03688928      9.78769018      4.47804502
       215       108         1      -1.0      9.64995363      9.63249075      4.39145224
       216       108         2       1.0      9.66850224      9.75993411      4.56981743
       217       109         1      -1.0      0.87620813      0.89061649      6.11524479
       218       109         2       1.0      0.92313810      1.09706822      6.17503829
       219       110         1      -1.0      2.64779154      0.90969183      6.16242005
       220       110         2       1.0      2.72540873      1.08971452      6.26225693
       221       111         1      -1.0      4.37488061      0.88713592      6.12959018
       222       111         2       1.0      4.52026501      0.98976707      6.25893555
       223       112         1      -1.0      6.12113424      0.88654810      6.12076487
       224       112         2       1.0      6.15794714      1.01990296      6.29182420
       225       113         1      -1.0      7.90369155      0.87961318      6.14036263
       226       113         2       1.0      8.08832166      0.97124988      6.21726803
       227       114         1      -1.0      9.65890649      0.92067318      6.15254868
       228       114         2       1.0      9.78305083      1.07270885      6.25191335
       229       115         1      -1.0      0.88426946      2.62907355      6.13773868
       230       115         2       1.0      0.89227878      2.81572184      6.25392072
       231       116         1      -1.0      2.62910795      2.65765347      6.14466478
       232       116         2       1.0      2.73709497      2.82290010      6.24178508
       233       117         1      -1.0      4.40365353      2.64226071      6.14532754
       234       117         2       1.0      4.43278974      2.77027445      6.32185958
       235       118         1      -1.0      6.12884489      2.66428063      6.15160182
       236       118         2       1.0      6.23652204      2.78227242      6.30287498
       237       119         1      -1.0      7.87396693      2.64265789      6.14558181
       238       119         2       1.0      7.99752013      2.80214688      6.23331932
       239       120         1      -1.0      9.62609119      2.63382757      6.15845823
       240       120         2       1.0      9.76891426      2.70029133      6.31202951
       241       121         1      -1.0      0.91532890      4.40837980      6.13593648
       242       121         2       1.0      0.94065710      4.61991418      6.19081532
       243       122         1      -1.0      2.64892182      4.38525696      6.14136638
       244       122         2       1.0      2.82292797      4.43725577      6.26553555
       245       123         1      -1.0      4.38153046      4.38816190      6.14322595
       246       123         2       1.0      4.49579994      4.44977307      6.32083942
       247       124         1      -1.0      6.13583289      4.40977793      6.12928024
       248       124         2       1.0      6.27320801      4.55782740      6.21651230
       249       125         1      -1.0      7.90063748      4.37851408      6.16468516
       250       125         2       1.0      8.06733299      4.50520504      6.23222780
       251       126         1      -1.0      9.63168916      4.38074583      6.13582887
       252       126         2       1.0      9.79597009      4.52705173      6.13835058
       253       127         1      -1.0      0.89780130      6.15797924      6.11576694
       254       127         2       1.0      1.00827852      6.34804408      6.12414191
       255       128         1      -1.0      2.65420445      6.12757088      6.11620559
       256       128         2       1.0      2.65627036      6.14885624      6.33516373
       257       129         1      -1.0      4.37124158      6.14768903      6.14081395
       258       129         2       1.0      4.48985906      6.25163959      6.29418987
       259       130         1      -1.0      6.12239877      6.14064929      6.13420993
       260       130         2       1.0      6.32033429      6.16141819      6.22796593
       261       131         1      -1.0      7.90819984      6.13976896      6.13610529
       262       131         2       1.0      8.03742349      6.30725170      6.19652699
       263       132         1      -1.0      9.62814759      6.12977285      6.16246883
       264       132         2       1.0      9.72468158      6.14849476      6.35926994
       265       133         1      -1.0      0.90484176      7.90502261      6.13896255
       266       133         2       1.0      1.06032561      7.99833674      6.26353078
       267       134         1      -1.0      2.64549780      7.90263388      6.14468180
       268       134         2       1.0      2.82600049      7.90328453      6.27045285
       269       135         1      -1.0      4.40895201      7.90022175      6.15151163
       270       135         2       1.0      4.42980603      8.11715161      6.18162050
       271       136         1      -1.0      6.15608707      7.86594848      6.14511851
       272       136         2       1.0      6.35269970      7.96373285      6.15859780
       273       137         1      -1.0      7.89111073      7.86336446      6.13704802
       274       137         2       1.0      8.04707819      7.98222251      6.23678223
       275       138         1      -1.0      9.61033943      7.86751637      6.11559363
       276       138         2       1.0      9.71968841      7.98728073      6.26425195
       277       139         1      -1.0      0.91281507      9.63796527      6.15245788
       278       139         2       1.0      1.04487581      9.77570524      6.26194606
       279       140         1      -1.0      2.62600023      9.66026102      6.15820441
       280       140         2       1.0      2.76991212      9.81380628      6.22233882
       281       141         1      -1.0      4.41536828      9.64879160      6.12965699
       282       141         2       1.0      4.62695076      9.68546809      6.17748680
       283       142         1      -1.0      6.13869044      9.61258070      6.15034475
       284       142         2       1.0      6.20736302      9.82124150      6.16237590
       285       143         1      -1.0      7.87314188      9.61404312      6.13080593
       286       143         2       1.0      7.91793565      9.70920078      6.32403776
       287       144         1      -1.0      9.62664501      9.62140484      6.13979313
       288       144         2       1.0      9.72751292      9.80679247      6.20189864
       289       145         1      -1.0      0.91107999      0.90196952      7.89970904
       290       145         2       1.0      0.94756190      1.08997039      8.00798990
       291       146         1      -1.0      2.63537207      0.89161671      7.87778132
       292       146         2       1.0      2.70232640      1.04700076      8.01839752
       293       147         1      -1.0      4.37981819      0.89761002      7.89717550
       294       147         2       1.0      4.53701163      1.05082839      7.91181632
       295       148         1      -1.0      6.12323002      0.89984333      7.88795953
       296       148         2       1.0      6.33830911      0.94143281      7.90824001
       297       149         1      -1.0      7.90191640      0.89003492      7.89450452
       298       149         2       1.0      7.91885264      0.99614704      8.08647687
       299       150         1      -1.0      9.61618893      0.87941621      7.87346248
       300       150         2       1.0      9.74378114      0.95019343      8.03811610
       301       151         1      -1.0      0.87566571      2.63001585      7.88661195
       302       151         2       1.0      0.99103197      2.78240948      7.99554683
       303       152         1      -1.0      2.66383205      2.62554428      7.89005938
       304       152         2       1.0      2.87670467      2.63699532      7.94441122
       305       153         1      -1.0      4.40098617      2.62958187      7.90454099
       306       153         2       1.0      4.55440060      2.72674149      8.02873446
       307       154         1      -1.0      6.13642967      2.65088594      7.86345267
       308       154         2       1.0      6.27186782      2.80613413      7.94061810
       309       155         1      -1.0      7.91321566      2.66669038      7.88115765
       310       155         2       1.0      8.04644313      2.75900141      8.02991624
       311       156         1      -1.0      9.64324585      2.64563979      7.87240516
       312       156         2       1.0      9.78849055      2.79780631      7.93682044
       313       157         1      -1.0      0.87496337      4.40131473      7.86474753
       314       157         2       1.0      0.99262306      4.53944055      7.98915594
       315       158         1      -1.0      2.64787015      4.41778785      7.90884978
       316       158         2       1.0      2.65545049      4.58800741      8.04801816
       317       159         1      -1.0      4.40874700      4.40385630      7.91027675
       318       159         2       1.0      4.47491179      4.42402049      8.11912029
       319       160         1      -1.0      6.16368609      4.39524424      7.90020504
       320       160         2       1.0      6.34767777      4.47683206      7.98903346
       321       161         1      -1.0      7.88642162      4.39648753      7.91190571
       322       161         2       1.0      8.03677816      4.45213375      8.06255898
       323       162         1      -1.0      9.65918263      4.39359299      7.88082103
       324       162         2       1.0      9.82170590      4.48334325      7.99885101
       325       163         1      -1.0      0.88592438      6.16681327      7.89273625
       326       163         2       1.0      0.94513656      6.31166590      8.04737011
       327       164         1      -1.0      2.64246126      6.16489558      7.90199234
       328       164         2       1.0      2.79030407      6.32238142      7.94371420
       329       165         1      -1.0      4.38351581      6.15617768      7.86250948
       330       165         2       1.0      4.52375154      6.29393064      7.96129240
       331       166         1      -1.0      6.11759561      6.13498643      7.91255545