# starting configuration for LAMMPS generated with a script available at
# https://github.com/Zirbo/OSPC_LAMMPS

            2592 atoms
            1728 bonds
             864 angles

               3 atom types
               2 bond types
               1 angle types

      0.00000000     10.48296558     xlo xhi
      0.00000000     10.48296558     ylo yhi
      0.00000000     10.48296558     zlo zhi

Masses
#  atomtype, mass
         1       2.0
         2       0.5
         3       0.5

Atoms
#  atom-ID mol-ID atom-type charge    x               y               z
         1         1         1      -1.0      0.92069497      0.92565950      0.89661021
         2         1         2       0.5      0.92885534      1.14056394      0.94297281
         3         1         3       0.5      0.91253460      0.71075506      0.85024762
         4         2         1      -1.0      2.64830683      0.88154645      0.91521036
         5         2         2       0.5      2.78790352      1.05142282      0.92261201
         6         2         3       0.5      2.50871014      0.71167009      0.90780871
         7         3         1      -1.0      4.41923309      0.91820422      0.89331765
         8         3         2       0.5      4.49491120      0.94457455      1.09820159
         9         3         3       0.5      4.34355499      0.89183388      0.68843370
        10         4         1      -1.0      6.14065173      0.90836087      0.90690998
        11         4         2       0.5      6.19892189      1.11290711      0.96317209
        12         4         3       0.5      6.08238157      0.70381463      0.85064787
        13         5         1      -1.0      7.87981373      0.90205002      0.87495206
        14         5         2       0.5      8.03453719      1.05777481      0.88945861
        15         5         3       0.5      7.72509028      0.74632522      0.86044552
        16         6         1      -1.0      9.64167527      0.91824043      0.89109885
        17         6         2       0.5      9.65312385      1.02320866      1.08410299
        18         6         3       0.5      9.63022670      0.81327221      0.69809470
        19         7         1      -1.0      0.90072838      2.64690549      0.87481327
        20         7         2       0.5      0.95124333      2.84268572      0.96152164
        21         7         3       0.5      0.85021344      2.45112526      0.78810490
        22         8         1      -1.0      2.66251928      2.63271459      0.91962152
        23         8         2       0.5      2.79449623      2.74289187      1.05689151
        24         8         3       0.5      2.53054233      2.52253731      0.78235152
        25         9         1      -1.0      4.38857298      2.64105493      0.89855280
        26         9         2       0.5      4.48875369      2.76059181      1.05371323
        27         9         3       0.5      4.28839227      2.52151805      0.74339237
        28        10         1      -1.0      6.13505501      2.62078185      0.90997544
        29        10         2       0.5      6.19010761      2.72573816      1.09532210
        30        10         3       0.5      6.08000241      2.51582554      0.72462878
        31        11         1      -1.0      7.90340565      2.67140612      0.90331342
        32        11         2       0.5      8.03349253      2.72518574      1.07238487
        33        11         3       0.5      7.77331876      2.61762650      0.73424197
        34        12         1      -1.0      9.61858987      2.67052705      0.91987325
        35        12         2       0.5      9.76548058      2.69456991      1.08187653
        36        12         3       0.5      9.47169916      2.64648420      0.75786998
        37        13         1      -1.0      0.88078988      4.38306128      0.89072162
        38        13         2       0.5      0.94128093      4.52425678      1.04821659
        39        13         3       0.5      0.82029883      4.24186578      0.73322666
        40        14         1      -1.0      2.65350954      4.36983016      0.88911843
        41        14         2       0.5      2.80892521      4.51921494      0.93305198
        42        14         3       0.5      2.49809387      4.22044538      0.84518487
        43        15         1      -1.0      4.37287706      4.37841579      0.88913446
        44        15         2       0.5      4.40531242      4.47927948      1.08194126
        45        15         3       0.5      4.34044170      4.27755209      0.69632766
        46        16         1      -1.0      6.11528503      4.38907468      0.90736926
        47        16         2       0.5      6.26648191      4.44298565      1.05781230
        48        16         3       0.5      5.96408814      4.33516371      0.75692622
        49        17         1      -1.0      7.87464796      4.40400488      0.90411505
        50        17         2       0.5      7.94924574      4.53444354      1.06480397
        51        17         3       0.5      7.80005019      4.27356622      0.74342614
        52        18         1      -1.0      9.62195383      4.39036355      0.90711458
        53        18         2       0.5      9.82800642      4.46741442      0.90945905
        54        18         3       0.5      9.41590125      4.31331269      0.90477011
        55        19         1      -1.0      0.88719473      6.15908058      0.89851787
        56        19         2       0.5      0.93924600      6.31764207      1.04186681
        57        19         3       0.5      0.83514347      6.00051908      0.75516893
        58        20         1      -1.0      2.64228983      6.16673014      0.88959910
        59        20         2       0.5      2.81942915      6.26417706      0.97635023
        60        20         3       0.5      2.46515050      6.06928322      0.80284798
        61        21         1      -1.0      4.37972289      6.16110819      0.88524725
        62        21         2       0.5      4.50031651      6.31357999      0.98824982
        63        21         3       0.5      4.25912928      6.00863638      0.78224468
        64        22         1      -1.0      6.16147444      6.13554671      0.90424598
        65        22         2       0.5      6.31427987      6.28643091      0.95204199
        66        22         3       0.5      6.00866901      5.98466250      0.85644998
        67        23         1      -1.0      7.90917636      6.14991311      0.91520763
        68        23         2       0.5      8.04248064      6.28766376      1.02316469
        69        23         3       0.5      7.77587208      6.01216246      0.80725057
        70        24         1      -1.0      9.61764534      6.11873779      0.89113131
        71        24         2       0.5      9.75995936      6.17847961      1.04790387
        72        24         3       0.5      9.47533132      6.05899598      0.73435875
        73        25         1      -1.0      0.88397507      7.88462680      0.88750599
        74        25         2       0.5      0.93370855      7.89509911      1.10155485
        75        25         3       0.5      0.83424160      7.87415448      0.67345714
        76        26         1      -1.0      2.62946655      7.86887985      0.90963248
        77        26         2       0.5      2.76396307      7.95383856      1.06159532
        78        26         3       0.5      2.49497003      7.78392114      0.75766964
        79        27         1      -1.0      4.38886545      7.88808242      0.90324371
        80        27         2       0.5      4.49545573      7.91335354      1.09403124
        81        27         3       0.5      4.28227518      7.86281131      0.71245617
        82        28         1      -1.0      6.15980359      7.86401928      0.87994598
        83        28         2       0.5      6.23150018      8.07081688      0.90217996
        84        28         3       0.5      6.08810700      7.65722167      0.85771201
        85        29         1      -1.0      7.90913178      7.88929572      0.92270923
        86        29         2       0.5      7.96790176      8.09985948      0.94738703
        87        29         3       0.5      7.85036180      7.67873196      0.89803144
        88        30         1      -1.0      9.63212384      7.90110296      0.92073437
        89        30         2       0.5      9.80032456      7.92571880      1.06038601
        90        30         3       0.5      9.46392312      7.87648711      0.78108274
        91        31         1      -1.0      0.88194688      9.63316229      0.88355169
        92        31         2       0.5      0.95205483      9.78496356      1.02652459
        93        31         3       0.5      0.81183894      9.48136101      0.74057879
        94        32         1      -1.0      2.67276474      9.64405855      0.90742946
        95        32         2       0.5      2.72328638      9.75705952      1.08930399
        96        32         3       0.5      2.62224309      9.53105757      0.72555494
        97        33         1      -1.0      4.40540867      9.66154065      0.90727131
        98        33         2       0.5      4.46048147      9.83976080      1.02390992
        99        33         3       0.5      4.35033588      9.48332050      0.79063270
       100        34         1      -1.0      6.13950576      9.61104610      0.88217497
       101        34         2       0.5      6.26155650      9.77577485      0.96197506
       102        34         3       0.5      6.01745502      9.44631734      0.80237488
       103        35         1      -1.0      7.88546878      9.66146957      0.88285684
       104        35         2       0.5      8.03400832      9.69561562      1.04150756
       105        35         3       0.5      7.73692923      9.62732353      0.72420612
       106        36         1      -1.0      9.61577032      9.62795445      0.91033622
       107        36         2       0.5      9.68672332      9.70995226      1.10175730
       108        36         3       0.5      9.54481731      9.54595663      0.71891514
       109        37         1      -1.0      0.88230960      0.91719260      2.64525884
       110        37         2       0.5      0.93014715      1.00681903      2.84039641
       111        37         3       0.5      0.83447205      0.82756617      2.45012127
       112        38         1      -1.0      2.65410412      0.89651652      2.64123849
       113        38         2       0.5      2.82134174      0.95354107      2.77231015
       114        38         3       0.5      2.48686651      0.83949197      2.51016683
       115        39         1      -1.0      4.40486935      0.91680075      2.63465570
       116        39         2       0.5      4.44512414      1.11253415      2.72667737
       117        39         3       0.5      4.36461457      0.72106735      2.54263403
       118        40         1      -1.0      6.15623162      0.87852780      2.62502648
       119        40         2       0.5      6.31884505      0.90799792      2.77024488
       120        40         3       0.5      5.99361819      0.84905768      2.47980808
       121        41         1      -1.0      7.86222452      0.91996105      2.65040468
       122        41         2       0.5      8.06917759      0.99411682      2.65885126
       123        41         3       0.5      7.65527144      0.84580527      2.64195811
       124        42         1      -1.0      9.65963980      0.91044675      2.65186719
       125        42         2       0.5      9.86178858      0.93280166      2.73574881
       126        42         3       0.5      9.45749101      0.88809184      2.56798557
       127        43         1      -1.0      0.90973671      2.64324840      2.66125120
       128        43         2       0.5      0.93465072      2.80597394      2.80719534
       129        43         3       0.5      0.88482270      2.48052286      2.51530706
       130        44         1      -1.0      2.64577204      2.62715903      2.62916032
       131        44         2       0.5      2.80241129      2.71539812      2.75595940
       132        44         3       0.5      2.48913278      2.53891993      2.50236124
       133        45         1      -1.0      4.41082266      2.64894629      2.62782668
       134        45         2       0.5      4.55776649      2.66093530      2.79111714
       135        45         3       0.5      4.26387882      2.63695729      2.46453622
       136        46         1      -1.0      6.12888341      2.63774936      2.65123735
       137        46         2       0.5      6.33119714      2.70760981      2.70211633
       138        46         3       0.5      5.92656968      2.56788890      2.60035836
       139        47         1      -1.0      7.87557367      2.63579268      2.66535619
       140        47         2       0.5      8.03950765      2.74469761      2.76366877
       141        47         3       0.5      7.71163969      2.52688774      2.56704361
       142        48         1      -1.0      9.61291726      2.65478381      2.64563209
       143        48         2       0.5      9.73824465      2.83058432      2.68790768
       144        48         3       0.5      9.48758986      2.47898331      2.60335649
       145        49         1      -1.0      0.87620288      4.38787047      2.63054222
       146        49         2       0.5      0.90764766      4.39080439      2.84826365
       147        49         3       0.5      0.84475811      4.38493655      2.41282080
       148        50         1      -1.0      2.66151485      4.38410721      2.63244689
       149        50         2       0.5      2.80129492      4.38476724      2.80233243
       150        50         3       0.5      2.52173479      4.38344719      2.46256134
       151        51         1      -1.0      4.41971802      4.39453460      2.64829853
       152        51         2       0.5      4.48683335      4.59100383      2.72106786
       153        51         3       0.5      4.35260269      4.19806538      2.57552920
       154        52         1      -1.0      6.13298524      4.39890509      2.65460695
       155        52         2       0.5      6.25139689      4.56460640      2.73780404
       156        52         3       0.5      6.01457358      4.23320379      2.57140986
       157        53         1      -1.0      7.88915081      4.40099753      2.65950274
       158        53         2       0.5      8.10678734      4.40600798      2.69127125
       159        53         3       0.5      7.67151429      4.39598707      2.62773423
       160        54         1      -1.0      9.65650443      4.41147580      2.65235629
       161        54         2       0.5      9.82797293      4.54568072      2.68378231
       162        54         3       0.5      9.48503593      4.27727089      2.62093027
       163        55         1      -1.0      0.90876911      6.12150062      2.65603631
       164        55         2       0.5      0.98810433      6.25219044      2.81423268
       165        55         3       0.5      0.82943389      5.99081080      2.49783993
       166        56         1      -1.0      2.63024431      6.12361689      2.62142525
       167        56         2       0.5      2.71814248      6.12860032      2.82304141
       168        56         3       0.5      2.54234615      6.11863346      2.41980908
       169        57         1      -1.0      4.40649924      6.15072768      2.65503417
       170        57         2       0.5      4.46326448      6.30148691      2.80486527
       171        57         3       0.5      4.34973399      5.99996844      2.50520307
       172        58         1      -1.0      6.11516721      6.16492877      2.63253558
       173        58         2       0.5      6.25843197      6.25791797      2.77120142
       174        58         3       0.5      5.97190245      6.07193958      2.49386973
       175        59         1      -1.0      7.91274768      6.13421252      2.65762166
       176        59         2       0.5      8.07248051      6.22901155      2.77551385
       177        59         3       0.5      7.75301486      6.03941349      2.53972948
       178        60         1      -1.0      9.65542104      6.15182897      2.62186291
       179        60         2       0.5      9.85677057      6.21914200      2.67954587
       180        60         3       0.5      9.45407151      6.08451594      2.56417996
       181        61         1      -1.0      0.88865276      7.86742629      2.62864943
       182        61         2       0.5      1.06345764      7.98834744      2.68540618
       183        61         3       0.5      0.71384788      7.74650514      2.57189268
       184        62         1      -1.0      2.66741238      7.87665775      2.66173763
       185        62         2       0.5      2.81941217      8.00094247      2.76098163
       186        62         3       0.5      2.51541259      7.75237303      2.56249363
       187        63         1      -1.0      4.40568265      7.89776295      2.64832088
       188        63         2       0.5      4.55722567      7.98509730      2.78176534
       189        63         3       0.5      4.25413962      7.81042860      2.51487643
       190        64         1      -1.0      6.15627424      7.90329818      2.62619629
       191        64         2       0.5      6.20385131      8.08369335      2.74278963
       192        64         3       0.5      6.10869717      7.72290302      2.50960295
       193        65         1      -1.0      7.88578820      7.89629808      2.64420784
       194        65         2       0.5      7.90173541      7.96693772      2.85194741
       195        65         3       0.5      7.86984098      7.82565845      2.43646828
       196        66         1      -1.0      9.64733737      7.89814620      2.62627388
       197        66         2       0.5      9.69066413      7.99500590      2.81899386
       198        66         3       0.5      9.60401062      7.80128649      2.43355390
       199        67         1      -1.0      0.90592361      9.63514962      2.62553980
       200        67         2       0.5      0.94166723      9.85140496      2.64440833
       201        67         3       0.5      0.87017998      9.41889428      2.60667128
       202        68         1      -1.0      2.65313770      9.64783865      2.65851882
       203        68         2       0.5      2.74777884      9.78694350      2.80026824
       204        68         3       0.5      2.55849657      9.50873381      2.51676940
       205        69         1      -1.0      4.38789740      9.61724159      2.63478966
       206        69         2       0.5      4.39911474      9.83183067      2.68196693
       207        69         3       0.5      4.37668005      9.40265250      2.58761238
       208        70         1      -1.0      6.14188620      9.65487942      2.63463429
       209        70         2       0.5      6.34318422      9.68998221      2.71616284
       210        70         3       0.5      5.94058819      9.61977663      2.55310574
       211        71         1      -1.0      7.91395483      9.65288657      2.66080999
       212        71         2       0.5      7.92388222      9.78305395      2.83789160
       213        71         3       0.5      7.90402743      9.52271918      2.48372837
       214        72         1      -1.0      9.65667808      9.61041692      2.64469410
       215        72         2       0.5      9.76284289      9.80149800      2.66953459
       216        72         3       0.5      9.55051326      9.41933583      2.61985361
       217        73         1      -1.0      0.87935263      0.90793207      4.37452779
       218        73         2       0.5      1.05577175      1.02521547      4.43386494
       219        73         3       0.5      0.70293351      0.79064867      4.31519065
       220        74         1      -1.0      2.65358201      0.87687421      4.37348176
       221        74         2       0.5      2.75469170      0.98622737      4.53540370
       222        74         3       0.5      2.55247232      0.76752105      4.21155981
       223        75         1      -1.0      4.40675226      0.89870743      4.37101833
       224        75         2       0.5      4.55504428      0.95149228      4.52471685
       225        75         3       0.5      4.25846024      0.84592258      4.21731981
       226        76         1      -1.0      6.12750610      0.87644003      4.38232027
       227        76         2       0.5      6.27755756      0.90223798      4.54112525
       228        76         3       0.5      5.97745463      0.85064208      4.22351528
       229        77         1      -1.0      7.89224348      0.88926750      4.40576343
       230        77         2       0.5      8.03454096      1.03855655      4.48234153
       231        77         3       0.5      7.74994599      0.73997844      4.32918534
       232        78         1      -1.0      9.63743731      0.89971163      4.39537757
       233        78         2       0.5      9.65005302      1.10993350      4.45899839
       234        78         3       0.5      9.62482159      0.68948976      4.33175675
       235        79         1      -1.0      0.91806974      2.65542476      4.40608711
       236        79         2       0.5      1.06510677      2.78252948      4.50916233
       237        79         3       0.5      0.77103272      2.52832003      4.30301189
       238        80         1      -1.0      2.64483548      2.65672768      4.38525803
       239        80         2       0.5      2.65493690      2.87514043      4.40962665
       240        80         3       0.5      2.63473405      2.43831492      4.36088942
       241        81         1      -1.0      4.41811155      2.62951375      4.38579657
       242        81         2       0.5      4.50747531      2.75802673      4.54038808
       243        81         3       0.5      4.32874780      2.50100077      4.23120507
       244        82         1      -1.0      6.13735248      2.66627793      4.41296958
       245        82         2       0.5      6.27034383      2.83059065      4.47391737
       246        82         3       0.5      6.00436114      2.50196522      4.35202179
       247        83         1      -1.0      7.86670005      2.62611739      4.38393246
       248        83         2       0.5      7.98793526      2.78879129      4.46901609
       249        83         3       0.5      7.74546483      2.46344349      4.29884883
       250        84         1      -1.0      9.61917954      2.67152403      4.39509456
       251        84         2       0.5      9.74316896      2.82298615      4.49552290
       252        84         3       0.5      9.49519012      2.52006192      4.29466622
       253        85         1      -1.0      0.91754761      4.41524725      4.41305425
       254        85         2       0.5      0.99439043      4.42704945      4.61885972
       255        85         3       0.5      0.84070479      4.40344506      4.20724879
       256        86         1      -1.0      2.66225667      4.38951055      4.40402573
       257        86         2       0.5      2.83469585      4.49462799      4.49129000
       258        86         3       0.5      2.48981748      4.28439312      4.31676147
       259        87         1      -1.0      4.37821924      4.39264906      4.38460753
       260        87         2       0.5      4.55807586      4.43977062      4.50221346
       261        87         3       0.5      4.19836262      4.34552749      4.26700159
       262        88         1      -1.0      6.15156406      4.41497688      4.39539136
       263        88         2       0.5      6.35475335      4.47924551      4.45001421
       264        88         3       0.5      5.94837477      4.35070824      4.34076851
       265        89         1      -1.0      7.87398716      4.39681976      4.39307347
       266        89         2       0.5      7.98111816      4.53829645      4.52310152
       267        89         3       0.5      7.76685615      4.25534306      4.26304543
       268        90         1      -1.0      9.63873603      4.37338306      4.37305193
       269        90         2       0.5      9.71825297      4.55473445      4.46890977
       270        90         3       0.5      9.55921908      4.19203166      4.27719409
       271        91         1      -1.0      0.88190812      6.15217535      4.41287296
       272        91         2       0.5      1.09568311      6.19212009      4.44610954
       273        91         3       0.5      0.66813312      6.11223061      4.37963639
       274        92         1      -1.0      2.65149322      6.15008280      4.38361255
       275        92         2       0.5      2.74952510      6.22815167      4.56443015
       276        92         3       0.5      2.55346135      6.07201392      4.20279496
       277        93         1      -1.0      4.39281907      6.12475470      4.39947928
       278        93         2       0.5      4.42029870      6.22015434      4.59580498
       279        93         3       0.5      4.36533944      6.02935507      4.20315359
       280        94         1      -1.0      6.15889522      6.15354871      4.41384108
       281        94         2       0.5      6.23522138      6.34499640      4.49079627
       282        94         3       0.5      6.08256905      5.96210103      4.33688589
       283        95         1      -1.0      7.87359482      6.15965168      4.37541277
       284        95         2       0.5      7.99650426      6.25424566      4.53144241
       285        95         3       0.5      7.75068537      6.06505770      4.21938314
       286        96         1      -1.0      9.61207032      6.12653861      4.39695730
       287        96         2       0.5      9.71217830      6.32233556      4.40343374
       288        96         3       0.5      9.51196233      5.93074166      4.39048086
       289        97         1      -1.0      0.89199146      7.88073276      4.41102425
       290        97         2       0.5      1.08721205      7.89988632      4.51063380
       291        97         3       0.5      0.69677087      7.86157919      4.31141471
       292        98         1      -1.0      2.64851018      7.91411116      4.41813512
       293        98         2       0.5      2.71480836      7.94225453      4.62601129
       294        98         3       0.5      2.58221200      7.88596779      4.21025895
       295        99         1      -1.0      4.37020330      7.87401920      4.41656732
       296        99         2       0.5      4.57316400      7.95890840      4.41744825
       297        99         3       0.5      4.16724260      7.78912999      4.41568639
       298       100         1      -1.0      6.13258218      7.89842880      4.37625202
       299       100         2       0.5      6.24452234      8.05342316      4.48509205
       300       100         3       0.5      6.02064202      7.74343445      4.26741200
       301       101         1      -1.0      7.91212183      7.89232025      4.40920293
       302       101         2       0.5      8.09163929      8.00680792      4.46457489
       303       101         3       0.5      7.73260437      7.77783257      4.35383097
       304       102         1      -1.0      9.62456095      7.86639736      4.39445357
       305       102         2       0.5      9.69267303      8.07030364      4.44117587
       306       102         3       0.5      9.55644886      7.66249108      4.34773126
       307       103         1      -1.0      0.87995354      9.64790416      4.40433565
       308       103         2       0.5      1.05345621      9.65430992      4.53944964
       309       103         3       0.5      0.70645087      9.64149839      4.26922166
       310       104         1      -1.0      2.65591834      9.63779362      4.39592389
       311       104         2       0.5      2.66837327      9.82135408      4.51654907
       312       104         3       0.5      2.64346340      9.45423317      4.27529871
       313       105         1      -1.0      4.41961296      9.64034626      4.37981077
       314       105         2       0.5      4.46465090      9.85128976      4.42310536
       315       105         3       0.5      4.37457502      9.42940275      4.33651618
       316       106         1      -1.0      6.11644969      9.62967829      4.39186961
       317       106         2       0.5      6.19128142      9.71544541      4.58013594
       318       106         3       0.5      6.04161795      9.54391118      4.20360327
       319       107         1      -1.0      7.86425026      9.63300870      4.40558773
       320       107         2       0.5      7.95257004      9.64825173      4.60650380
       321       107         3       0.5      7.77593047      9.61776568      4.20467166
       322       108         1      -1.0      9.65771013      9.65068979      4.41731706
       323       108         2       0.5      9.77460588      9.83174750      4.46151532
       324       108         3       0.5      9.54081437      9.46963207      4.37311880
       325       109         1      -1.0      0.87643029      0.90428647      6.14220365
       326       109         2       0.5      0.99125851      1.04559408      6.26568093
       327       109         3       0.5      0.76160207      0.76297885      6.01872637
       328       110         1      -1.0      2.62910312      0.87581166      6.14854827
       329       110         2       0.5      2.66440699      1.03892709      6.29189050
       330       110         3       0.5      2.59379925      0.71269623      6.00520605