# 3D starting configuration for LAMMPS created with a script available at
# https://github.com/Zirbo/IPCsim/tree/master/lammps

            1728 atoms
             864 bonds

               2 atom types
               1 bond types

      0.00000000     10.72684242     xlo xhi
      0.00000000     10.72684242     ylo yhi
      0.00000000     10.72684242     zlo zhi

Masses
#  atomtype, mass
         1       2.9
         2       0.1

Atoms
#  atom-ID mol-ID atom-type charge    x               y               z
         1         1         1      -1.0      0.91983281      0.90244718      0.90083849
         2         1         2       1.0      0.98437409      1.01740185      1.07696301
         3         2         1      -1.0      2.69490809      0.91658531      0.94664720
         4         2         2       1.0      2.86127790      1.04824282      1.00484848
         5         3         1      -1.0      4.47924815      0.93746143      0.92085894
         6         3         2       1.0      4.56806372      0.99531336      1.11364106
         7         4         1      -1.0      6.26221575      0.92579948      0.90562100
         8         4         2       1.0      6.41341511      1.04520844      1.01182954
         9         5         1      -1.0      8.04727733      0.93198552      0.91244159
        10         5         2       1.0      8.14953438      0.94876626      1.10650834
        11         6         1      -1.0      9.86667733      0.94321154      0.91737308
        12         6         2       1.0     10.02349287      0.95520688      1.07120740
        13         7         1      -1.0      0.93535407      2.71164675      0.94376225
        14         7         2       1.0      0.99756101      2.89249728      1.05249762
        15         8         1      -1.0      2.71145343      2.72514001      0.89686025
        16         8         2       1.0      2.73719897      2.93866093      0.94318501
        17         9         1      -1.0      4.48842735      2.71195226      0.92259660
        18         9         2       1.0      4.62770411      2.88177018      0.93539724
        19        10         1      -1.0      6.30156782      2.68767504      0.92674116
        20        10         2       1.0      6.30391168      2.86443301      1.05770347
        21        11         1      -1.0      8.07830343      2.71747841      0.93168936
        22        11         2       1.0      8.27156209      2.75478004      1.02997304
        23        12         1      -1.0      9.86376548      2.71889781      0.89793595
        24        12         2       1.0     10.04296264      2.78443484      1.00744976
        25        13         1      -1.0      0.91875311      4.51621971      0.90257683
        26        13         2       1.0      1.00733609      4.69467394      0.99588892
        27        14         1      -1.0      2.72857186      4.49741412      0.91876600
        28        14         2       1.0      2.73774936      4.65394756      1.07308079
        29        15         1      -1.0      4.51881561      4.50921635      0.93400287
        30        15         2       1.0      4.67776753      4.52198822      1.08556529
        31        16         1      -1.0      6.27284186      4.48267993      0.93189997
        32        16         2       1.0      6.29175466      4.52083463      1.14773909
        33        17         1      -1.0      8.07245087      4.50444942      0.92516899
        34        17         2       1.0      8.28161166      4.57226774      0.93241057
        35        18         1      -1.0      9.83791163      4.47916415      0.93761634
        36        18         2       1.0      9.84851833      4.63494690      1.09259773
        37        19         1      -1.0      0.91411516      6.26341952      0.94464680
        38        19         2       1.0      0.96804378      6.28486331      1.15685393
        39        20         1      -1.0      2.73311136      6.30893085      0.93410731
        40        20         2       1.0      2.87713158      6.35027741      1.09519312
        41        21         1      -1.0      4.51099418      6.29108028      0.92396135
        42        21         2       1.0      4.65639544      6.30343097      1.08860015
        43        22         1      -1.0      6.27201253      6.26239284      0.90744314
        44        22         2       1.0      6.40568153      6.41183153      0.99800073
        45        23         1      -1.0      8.08476534      6.27194914      0.91441187
        46        23         2       1.0      8.24145964      6.29793105      1.06663485
        47        24         1      -1.0      9.87800799      6.28436350      0.89421730
        48        24         2       1.0      9.98612846      6.41872851      1.03080430
        49        25         1      -1.0      0.89547027      8.09833318      0.89675718
        50        25         2       1.0      1.08849629      8.17450861      0.96982058
        51        26         1      -1.0      2.68270213      8.07511575      0.90003022
        52        26         2       1.0      2.90176367      8.09532864      0.90189602
        53        27         1      -1.0      4.47783521      8.05618486      0.93112741
        54        27         2       1.0      4.64203688      8.17474168      1.01704652
        55        28         1      -1.0      6.28168276      8.07634850      0.92464236
        56        28         2       1.0      6.28650538      8.24295433      1.06823637
        57        29         1      -1.0      8.07552504      8.06906009      0.91116436
        58        29         2       1.0      8.19284231      8.15006404      1.07872036
        59        30         1      -1.0      9.84603649      8.06743662      0.91700105
        60        30         2       1.0     10.04583235      8.09771182      1.00397822
        61        31         1      -1.0      0.90792318      9.84561286      0.93318978
        62        31         2       1.0      1.01979860      9.87877842      1.11969430
        63        32         1      -1.0      2.73293461      9.87270364      0.91988417
        64        32         2       1.0      2.79790420     10.02217758      1.06765594
        65        33         1      -1.0      4.47276933      9.85101679      0.91543751
        66        33         2       1.0      4.59816575      9.86647843      1.09553936
        67        34         1      -1.0      6.30521593      9.84747866      0.92318201
        68        34         2       1.0      6.34485736      9.99302734      1.08331989
        69        35         1      -1.0      8.05362438      9.84372906      0.93428661
        70        35         2       1.0      8.20162776      9.97818675      1.02602606
        71        36         1      -1.0      9.83519384      9.83518576      0.90547272
        72        36         2       1.0      9.94713634      9.91466240      1.07738067
        73        37         1      -1.0      0.93098148      0.92962545      2.71906937
        74        37         2       1.0      0.97702067      1.08792131      2.86474989
        75        38         1      -1.0      2.69211561      0.91527260      2.70626745
        76        38         2       1.0      2.86826851      1.01022288      2.79767097
        77        39         1      -1.0      4.50958027      0.91812821      2.73125157
        78        39         2       1.0      4.66647066      1.07015494      2.75719917
        79        40         1      -1.0      6.27013293      0.89447720      2.69535430
        80        40         2       1.0      6.38809979      0.96181075      2.86841502
        81        41         1      -1.0      8.08459874      0.92531602      2.70856823
        82        41         2       1.0      8.16563795      1.06391499      2.85897758
        83        42         1      -1.0      9.87345313      0.89830900      2.68515936
        84        42         2       1.0     10.05260316      0.92874988      2.80916993
        85        43         1      -1.0      0.93075319      2.72631013      2.69065853
        86        43         2       1.0      1.13389983      2.76489766      2.76577476
        87        44         1      -1.0      2.69293555      2.70151071      2.71608975
        88        44         2       1.0      2.72262932      2.76731967      2.92390568
        89        45         1      -1.0      4.50303599      2.71950319      2.68695234
        90        45         2       1.0      4.60839661      2.84475834      2.83395672
        91        46         1      -1.0      6.28066246      2.71014456      2.70382838
        92        46         2       1.0      6.46374488      2.82836830      2.73389453
        93        47         1      -1.0      8.08401387      2.71478101      2.72963172
        94        47         2       1.0      8.22979568      2.84190201      2.83445497
        95        48         1      -1.0      9.87707701      2.73301361      2.72653856
        96        48         2       1.0      9.88454270      2.86466046      2.90264469
        97        49         1      -1.0      0.92776563      4.51373703      2.73520024
        98        49         2       1.0      1.05979113      4.67334509      2.80932536
        99        50         1      -1.0      2.72767889      4.51522260      2.72862984
       100        50         2       1.0      2.90426816      4.61564882      2.81307393
       101        51         1      -1.0      4.48065078      4.48514585      2.73274667
       102        51         2       1.0      4.51668555      4.65246254      2.87097337
       103        52         1      -1.0      6.30007970      4.47289267      2.72341874
       104        52         2       1.0      6.32350753      4.64302772      2.86091493
       105        53         1      -1.0      8.06740678      4.48791896      2.69338625
       106        53         2       1.0      8.14921242      4.62307476      2.84648996
       107        54         1      -1.0      9.85649591      4.47801800      2.69955378
       108        54         2       1.0     10.05490420      4.49771086      2.79253950
       109        55         1      -1.0      0.94554580      6.25998754      2.73062310
       110        55         2       1.0      1.02563385      6.41289229      2.86702707
       111        56         1      -1.0      2.68811157      6.29408727      2.72725880
       112        56         2       1.0      2.75584445      6.43768950      2.87954359
       113        57         1      -1.0      4.47690592      6.28391151      2.71812628
       114        57         2       1.0      4.62319333      6.43325779      2.78665133
       115        58         1      -1.0      6.30513202      6.26243898      2.72615941
       116        58         2       1.0      6.33895261      6.39703934      2.89686064
       117        59         1      -1.0      8.09721713      6.28079852      2.69327940
       118        59         2       1.0      8.18099166      6.43293749      2.82831852
       119        60         1      -1.0      9.84403733      6.25806554      2.68844956
       120        60         2       1.0      9.87799247      6.43381190      2.81635680
       121        61         1      -1.0      0.93455777      8.05608907      2.72585683
       122        61         2       1.0      1.14141771      8.07270795      2.79888269
       123        62         1      -1.0      2.70084453      8.05554436      2.68614527
       124        62         2       1.0      2.73839443      8.20091760      2.84694523
       125        63         1      -1.0      4.51232322      8.05850460      2.69763238
       126        63         2       1.0      4.64977626      8.16151032      2.83509685
       127        64         1      -1.0      6.28113146      8.09710095      2.68534514
       128        64         2       1.0      6.43805083      8.23280110      2.75856934
       129        65         1      -1.0      8.06307675      8.08582976      2.71944575
       130        65         2       1.0      8.15114446      8.14162406      2.91317514
       131        66         1      -1.0      9.87413339      8.07002717      2.72804410
       132        66         2       1.0     10.04271544      8.14596339      2.84726567
       133        67         1      -1.0      0.93568472      9.86916838      2.71039472
       134        67         2       1.0      1.04994243     10.05607982      2.73062570
       135        68         1      -1.0      2.71094505      9.88202078      2.68283860
       136        68         2       1.0      2.84566435     10.00443956      2.80638758
       137        69         1      -1.0      4.47547588      9.88097752      2.69958872
       138        69         2       1.0      4.64084785      9.95216492      2.82601841
       139        70         1      -1.0      6.29282429      9.84713630      2.70807479
       140        70         2       1.0      6.30904499      9.89255154      2.92272415
       141        71         1      -1.0      8.06470699      9.83934846      2.69311773
       142        71         2       1.0      8.09028608     10.02853110      2.80245958
       143        72         1      -1.0      9.84531770      9.88637167      2.71263491
       144        72         2       1.0     10.02363938      9.99877363      2.77562045
       145        73         1      -1.0      0.90254336      0.92299240      4.48353172
       146        73         2       1.0      0.97763594      0.97792934      4.68288828
       147        74         1      -1.0      2.72832086      0.91887651      4.51408798
       148        74         2       1.0      2.82831857      1.05007970      4.65964271
       149        75         1      -1.0      4.50824872      0.89845637      4.49386533
       150        75         2       1.0      4.63225844      0.93814162      4.67119742
       151        76         1      -1.0      6.28753387      0.91212730      4.51862256
       152        76         2       1.0      6.35101717      1.04561651      4.68156580
       153        77         1      -1.0      8.04815260      0.92349560      4.49180334
       154        77         2       1.0      8.19177754      1.06078683      4.58626495
       155        78         1      -1.0      9.84832651      0.93892824      4.51067955
       156        78         2       1.0      9.98139822      1.07732469      4.61809623
       157        79         1      -1.0      0.89605935      2.72691647      4.47124782
       158        79         2       1.0      0.92133237      2.88524006      4.62189614
       159        80         1      -1.0      2.70463277      2.70232172      4.50077812
       160        80         2       1.0      2.73329256      2.74559952      4.71456691
       161        81         1      -1.0      4.47076465      2.72553130      4.52051896
       162        81         2       1.0      4.60817996      2.78369998      4.68217736
       163        82         1      -1.0      6.26575359      2.69405428      4.49952652
       164        82         2       1.0      6.37852535      2.86190762      4.58617399
       165        83         1      -1.0      8.06894223      2.70137152      4.48450853
       166        83         2       1.0      8.23223005      2.72289215      4.63036445
       167        84         1      -1.0      9.86633348      2.68442067      4.48044281
       168        84         2       1.0     10.01607509      2.83698933      4.53240678
       169        85         1      -1.0      0.94162123      4.48075702      4.47063320
       170        85         2       1.0      1.04233790      4.62886257      4.59838646
       171        86         1      -1.0      2.71544839      4.49855200      4.48605323
       172        86         2       1.0      2.77563540      4.62442427      4.65615231
       173        87         1      -1.0      4.51702318      4.49369299      4.51835735
       174        87         2       1.0      4.64529511      4.65982069      4.58429596
       175        88         1      -1.0      6.30042692      4.52103020      4.51599538
       176        88         2       1.0      6.43356959      4.55870036      4.68703336
       177        89         1      -1.0      8.09149980      4.51058736      4.49102279
       178        89         2       1.0      8.16849223      4.62521201      4.66229261
       179        90         1      -1.0      9.85875036      4.51805014      4.50743626
       180        90         2       1.0      9.96161988      4.66431741      4.63559143
       181        91         1      -1.0      0.91700883      6.29581819      4.51601454
       182        91         2       1.0      1.11482399      6.32491217      4.60778984
       183        92         1      -1.0      2.69715523      6.31022828      4.49287136
       184        92         2       1.0      2.81827478      6.45354331      4.60772283
       185        93         1      -1.0      4.52063249      6.26404069      4.49268197
       186        93         2       1.0      4.54586848      6.38158829      4.67692557
       187        94         1      -1.0      6.30464002      6.28840096      4.50992676
       188        94         2       1.0      6.39620531      6.45036265      4.62733294
       189        95         1      -1.0      8.09000669      6.28952350      4.52100148
       190        95         2       1.0      8.16476402      6.32453820      4.72492625
       191        96         1      -1.0      9.85004207      6.27440580      4.50313247
       192        96         2       1.0     10.01478907      6.38185636      4.60168601
       193        97         1      -1.0      0.92563867      8.09193207      4.48769307
       194        97         2       1.0      1.05170253      8.23365726      4.59914654
       195        98         1      -1.0      2.71133674      8.06620328      4.52047699
       196        98         2       1.0      2.85555996      8.10930156      4.68092075
       197        99         1      -1.0      4.48189052      8.08700222      4.47839729
       198        99         2       1.0      4.60836501      8.09520975      4.65822175
       199       100         1      -1.0      6.28252085      8.07942123      4.52113184
       200       100         2       1.0      6.34618110      8.20102492      4.69306181
       201       101         1      -1.0      8.06667994      8.05896761      4.51264324
       202       101         2       1.0      8.19840871      8.18974605      4.63073021
       203       102         1      -1.0      9.85410812      8.08390724      4.50359730
       204       102         2       1.0      9.92539583      8.25198385      4.62635037
       205       103         1      -1.0      0.90242345      9.87876489      4.48761324
       206       103         2       1.0      1.11966816      9.91095043      4.50060667
       207       104         1      -1.0      2.69000662      9.84461157      4.47431749
       208       104         2       1.0      2.80434415      9.93038148      4.64156118
       209       105         1      -1.0      4.51438908      9.86826051      4.49700899
       210       105         2       1.0      4.71139588      9.96165288      4.52644003
       211       106         1      -1.0      6.26524293      9.83847388      4.47825070
       212       106         2       1.0      6.45535934      9.89420818      4.57390340
       213       107         1      -1.0      8.09660060      9.87199498      4.47189859
       214       107         2       1.0      8.24513454     10.00297525      4.56772050
       215       108         1      -1.0      9.85645791      9.83785473      4.51255125
       216       108         2       1.0     10.00015074      9.99304102      4.57312837
       217       109         1      -1.0      0.89977025      0.90356926      6.28783691
       218       109         2       1.0      1.08887136      1.01570933      6.29592248
       219       110         1      -1.0      2.71332572      0.90208220      6.27548989
       220       110         2       1.0      2.76294694      0.99177952      6.47014889
       221       111         1      -1.0      4.51040029      0.90236566      6.26730708
       222       111         2       1.0      4.52790215      0.94867198      6.48166521
       223       112         1      -1.0      6.31073404      0.89770023      6.29671468
       224       112         2       1.0      6.43813127      1.00076071      6.44350870
       225       113         1      -1.0      8.09255753      0.94735618      6.28098683
       226       113         2       1.0      8.23227757      1.05311878      6.41400030
       227       114         1      -1.0      9.86064201      0.89436848      6.27541835
       228       114         2       1.0     10.02092300      0.97125788      6.40502554
       229       115         1      -1.0      0.92248762      2.68285012      6.29508665
       230       115         2       1.0      1.05847679      2.77211647      6.44320303
       231       116         1      -1.0      2.71253393      2.71020009      6.30315204
       232       116         2       1.0      2.73496661      2.72911762      6.52118622
       233       117         1      -1.0      4.51006329      2.70245704      6.26939124
       234       117         2       1.0      4.51689988      2.87669541      6.40353390
       235       118         1      -1.0      6.26053978      2.71555720      6.30308195
       236       118         2       1.0      6.28782508      2.92278776      6.37171873
       237       119         1      -1.0      8.05417581      2.70154706      6.25845287
       238       119         2       1.0      8.24238452      2.73625195      6.36695657
       239       120         1      -1.0      9.85869687      2.70624763      6.26627443
       240       120         2       1.0      9.97828468      2.81064626      6.41858885
       241       121         1      -1.0      0.91943992      4.47981202      6.31038427
       242       121         2       1.0      1.08283180      4.52772845      6.44969367
       243       122         1      -1.0      2.68863376      4.50000895      6.27739482
       244       122         2       1.0      2.72621620      4.71675442      6.28038853
       245       123         1      -1.0      4.50459137      4.49912844      6.30406652
       246       123         2       1.0      4.61107941      4.68982830      6.33040774
       247       124         1      -1.0      6.30545699      4.47654576      6.28758708
       248       124         2       1.0      6.45213599      4.60174802      6.39346279
       249       125         1      -1.0      8.08512959      4.47994796      6.27767436
       250       125         2       1.0      8.10139997      4.69127333      6.33663928
       251       126         1      -1.0      9.87111964      4.48292608      6.30799515
       252       126         2       1.0     10.01374314      4.64449790      6.35218882
       253       127         1      -1.0      0.93232297      6.30164955      6.28266809
       254       127         2       1.0      1.09363538      6.44720030      6.31721205
       255       128         1      -1.0      2.72277601      6.28671404      6.25906340
       256       128         2       1.0      2.77875113      6.41971990      6.42512431
       257       129         1      -1.0      4.48120482      6.30438561      6.30594049
       258       129         2       1.0      4.62623838      6.40699430      6.43569690
       259       130         1      -1.0      6.28803850      6.30022137      6.30723627
       260       130         2       1.0      6.29955317      6.47527385      6.43999185
       261       131         1      -1.0      8.08670792      6.29781119      6.26247538
       262       131         2       1.0      8.20462998      6.38750330      6.42510906
       263       132         1      -1.0      9.87423031      6.25980386      6.29991683
       264       132         2       1.0      9.99689079      6.36181502      6.45140323
       265       133         1      -1.0      0.94214789      8.07002433      6.28819214
       266       133         2       1.0      0.95781848      8.14557628      6.49421723
       267       134         1      -1.0      2.70212949      8.09576327      6.30380004
       268       134         2       1.0      2.71288997      8.11884228      6.52232137
       269       135         1      -1.0      4.47906823      8.06056007      6.27111121
       270       135         2       1.0      4.62676604      8.16785851      6.39388091
       271       136         1      -1.0      6.29755233      8.07782959      6.27182739
       272       136         2       1.0      6.42514961      8.24749886      6.32954459
       273       137         1      -1.0      8.06069573      8.07302454      6.29702629
       274       137         2       1.0      8.17941120      8.24301447      6.37057941
       275       138         1      -1.0      9.85095958      8.04708116      6.27824955
       276       138         2       1.0      9.94517963      8.22802747      6.36059648
       277       139         1      -1.0      0.94706782      9.85768978      6.26601177
       278       139         2       1.0      1.10856473     10.00070902      6.30918871
       279       140         1      -1.0      2.71058855      9.88197048      6.26312784
       280       140         2       1.0      2.84935346     10.01939758      6.36441008
       281       141         1      -1.0      4.51150421      9.84713958      6.28255951
       282       141         2       1.0      4.55413747      9.84793725      6.49838761
       283       142         1      -1.0      6.25824952      9.85881604      6.27096062
       284       142         2       1.0      6.38039050      9.93272609      6.43834904
       285       143         1      -1.0      8.05208738      9.83425251      6.27352345
       286       143         2       1.0      8.17721149     10.01171209      6.30890786
       287       144         1      -1.0      9.84443139      9.87649364      6.30531747
       288       144         2       1.0      9.86328208     10.01759386      6.47305352
       289       145         1      -1.0      0.93353439      0.93718678      8.08286882
       290       145         2       1.0      0.98165748      1.08051549      8.24268449
       291       146         1      -1.0      2.70927454      0.92408697      8.07259013
       292       146         2       1.0      2.84592691      1.03546954      8.20419581
       293       147         1      -1.0      4.49789484      0.91983538      8.05536739
       294       147         2       1.0      4.52939198      1.07393727      8.20918721
       295       148         1      -1.0      6.29467990      0.93503083      8.05187278
       296       148         2       1.0      6.43626327      1.07321293      8.14810094
       297       149         1      -1.0      8.05144059      0.91003639      8.08634527
       298       149         2       1.0      8.15810751      0.98238206      8.26463793
       299       150         1      -1.0      9.86635734      0.93507300      8.05326290
       300       150         2       1.0      9.96769046      1.07885835      8.18538925
       301       151         1      -1.0      0.94232176      2.73057328      8.06859783
       302       151         2       1.0      1.04980052      2.92252162      8.07063461
       303       152         1      -1.0      2.72731833      2.72242705      8.06777913
       304       152         2       1.0      2.78714872      2.88033890      8.20879038
       305       153         1      -1.0      4.48127889      2.72343728      8.05858914
       306       153         2       1.0      4.60105671      2.83639564      8.20451270
       307       154         1      -1.0      6.29557581      2.69554759      8.04801627
       308       154         2       1.0      6.38483386      2.73515115      8.24515723
       309       155         1      -1.0      8.05180000      2.68418147      8.06107235
       310       155         2       1.0      8.15313854      2.81791841      8.20335702
       311       156         1      -1.0      9.86904912      2.68566446      8.09699513
       312       156         2       1.0      9.97928085      2.72741540      8.28275256
       313       157         1      -1.0      0.94741295      4.49942725      8.07976073
       314       157         2       1.0      1.03314383      4.56216511      8.27241113
       315       158         1      -1.0      2.69141475      4.48313617      8.06071215
       316       158         2       1.0      2.84769673      4.51583264      8.21206235
       317       159         1      -1.0      4.52113857      4.50385314      8.05031533
       318       159         2       1.0      4.52493556      4.57702717      8.25775483
       319       160         1      -1.0      6.26743175      4.49105852      8.06971169
       320       160         2       1.0      6.42272308      4.62666806      8.14648836
       321       161         1      -1.0      8.05243749      4.51506367      8.04765730
       322       161         2       1.0      8.17179746      4.65377840      8.16976962
       323       162         1      -1.0      9.87297123      4.49948801      8.06858221
       324       162         2       1.0     10.05105575      4.60561318      8.14222562
       325       163         1      -1.0      0.93475716      6.30934142      8.08047875
       326       163         2       1.0      0.98868172      6.40455349      8.27133682
       327       164         1      -1.0      2.68205359      6.30766213      8.09859052
       328       164         2       1.0      2.75672460      6.46742149      8.23012450
       329       165         1      -1.0      4.47810550      6.31001064      8.05921398
       330       165         2       1.0      4.57461956      6.31746422      8.25677278
       331       166         1      -1.0      6.28382459      6.30750287      8.08180998