# 3D starting configuration for LAMMPS created with a script available at
# https://github.com/Zirbo/IPCsim/tree/master/lammps

            3000 atoms
            2000 bonds
            1000 angles

               2 atom types
               1 bond types
               1 angle types

      0.00000000     11.54415673     xlo xhi
      0.00000000     11.54415673     ylo yhi
      0.00000000     11.54415673     zlo zhi

Masses
#  atomtype, mass
         1       2.0
         2       0.5

Atoms
#  atom-ID mol-ID atom-type charge    x               y               z
         1         1         1      -1.0      0.68991228      0.60456014      0.59863892
         2         1         2       0.5      0.85594584      0.73911342      0.65087179
         3         1         2       0.5      0.52387871      0.47000686      0.54640606
         4         2         1      -1.0      1.77748580      0.64756075      0.61892724
         5         2         2       0.5      1.88144667      0.72002190      0.79876472
         6         2         2       0.5      1.67352494      0.57509959      0.43908975
         7         3         1      -1.0      2.89625181      0.60785429      0.63056221
         8         3         2       0.5      2.91937170      0.77397557      0.77293212
         9         3         2       0.5      2.87313192      0.44173301      0.48819230
        10         4         1      -1.0      4.14904747      0.59053691      0.65466476
        11         4         2       0.5      4.32737566      0.63359341      0.77609454
        12         4         2       0.5      3.97071927      0.54748040      0.53323498
        13         5         1      -1.0      5.20543960      0.65488509      0.59296695
        14         5         2       0.5      5.22872640      0.81868374      0.73797636
        15         5         2       0.5      5.18215279      0.49108644      0.44795755
        16         6         1      -1.0      6.41145161      0.66508863      0.68960067
        17         6         2       0.5      6.52928837      0.82440828      0.78516084
        18         6         2       0.5      6.29361485      0.50576897      0.59404051
        19         7         1      -1.0      7.53447738      0.60127336      0.65259953
        20         7         2       0.5      7.63284062      0.72259720      0.80753564
        21         7         2       0.5      7.43611414      0.47994951      0.49766342
        22         8         1      -1.0      8.76641835      0.63811613      0.67445481
        23         8         2       0.5      8.94782793      0.67876759      0.79208994
        24         8         2       0.5      8.58500877      0.59746467      0.55681968
        25         9         1      -1.0      9.83456187      0.58967872      0.66885410
        26         9         2       0.5      9.96714640      0.70229506      0.80353485
        27         9         2       0.5      9.70197734      0.47706239      0.53417335
        28        10         1      -1.0     11.01474970      0.66948708      0.65023407
        29        10         2       0.5     11.10478695      0.83192521      0.76816264
        30        10         2       0.5     10.92471244      0.50704895      0.53230551
        31        11         1      -1.0      0.59787475      1.74980305      0.65807921
        32        11         2       0.5      0.66768789      1.88349990      0.81823938
        33        11         2       0.5      0.52806161      1.61610621      0.49791904
        34        12         1      -1.0      1.77130579      1.82740134      0.67759051
        35        12         2       0.5      1.93394201      1.87086826      0.81922415
        36        12         2       0.5      1.60866957      1.78393443      0.53595687
        37        13         1      -1.0      2.93583505      1.76505543      0.58501888
        38        13         2       0.5      2.97529533      1.98148004      0.58682926
        39        13         2       0.5      2.89637477      1.54863083      0.58320850
        40        14         1      -1.0      4.11579755      1.75253928      0.63141308
        41        14         2       0.5      4.20012922      1.85671906      0.80586864
        42        14         2       0.5      4.03146587      1.64835950      0.45695752
        43        15         1      -1.0      5.23020303      1.84010470      0.63271025
        44        15         2       0.5      5.36994264      1.90647033      0.78913417
        45        15         2       0.5      5.09046341      1.77373906      0.47628632
        46        16         1      -1.0      6.40271514      1.84419607      0.63840025
        47        16         2       0.5      6.43837682      1.98464842      0.80393388
        48        16         2       0.5      6.36705346      1.70374373      0.47286662
        49        17         1      -1.0      7.58619247      1.82698782      0.68885416
        50        17         2       0.5      7.63051040      1.96194954      0.85684599
        51        17         2       0.5      7.54187453      1.69202610      0.52086233
        52        18         1      -1.0      8.71679588      1.81950968      0.59129850
        53        18         2       0.5      8.88378141      1.95430178      0.63974355
        54        18         2       0.5      8.54981036      1.68471757      0.54285345
        55        19         1      -1.0      9.85055385      1.77432129      0.58499869
        56        19         2       0.5     10.02361143      1.90409017      0.62513737
        57        19         2       0.5      9.67749627      1.64455242      0.54486000
        58        20         1      -1.0     10.98614691      1.83078978      0.59094728
        59        20         2       0.5     11.17072025      1.94600099      0.62349048
        60        20         2       0.5     10.80157357      1.71557858      0.55840408
        61        21         1      -1.0      0.60518886      2.98476381      0.63450841
        62        21         2       0.5      0.66204374      3.13157254      0.78817922
        63        21         2       0.5      0.54833398      2.83795508      0.48083760
        64        22         1      -1.0      1.74402393      2.93449136      0.57768874
        65        22         2       0.5      1.94062440      3.03200878      0.59313567
        66        22         2       0.5      1.54742346      2.83697394      0.56224180
        67        23         1      -1.0      2.90933223      2.92984112      0.62761585
        68        23         2       0.5      2.94859390      3.01184497      0.82795030
        69        23         2       0.5      2.87007055      2.84783728      0.42728140
        70        24         1      -1.0      4.10845815      2.95132676      0.62644274
        71        24         2       0.5      4.14206607      3.03641443      0.82651922
        72        24         2       0.5      4.07485024      2.86623909      0.42636626
        73        25         1      -1.0      5.28576528      2.89136120      0.58434532
        74        25         2       0.5      5.38324187      3.01764770      0.73583801
        75        25         2       0.5      5.18828869      2.76507470      0.43285263
        76        26         1      -1.0      6.45317244      2.99859618      0.66875396
        77        26         2       0.5      6.55811726      3.15540346      0.78188249
        78        26         2       0.5      6.34822762      2.84178891      0.55562544
        79        27         1      -1.0      7.58052531      2.91553310      0.62869812
        80        27         2       0.5      7.73805343      3.05117969      0.70070432
        81        27         2       0.5      7.42299720      2.77988650      0.55669191
        82        28         1      -1.0      8.69794405      2.95377932      0.61062941
        83        28         2       0.5      8.86261862      3.02286440      0.73911886
        84        28         2       0.5      8.53326949      2.88469423      0.48213996
        85        29         1      -1.0      9.87801433      2.92590922      0.60391254
        86        29         2       0.5     10.00793319      3.05490125      0.72590494
        87        29         2       0.5      9.74809547      2.79691718      0.48192015
        88        30         1      -1.0     11.02408477      2.97408068      0.60737469
        89        30         2       0.5     11.17004745      3.08758890      0.72658365
        90        30         2       0.5     10.87812208      2.86057246      0.48816572
        91        31         1      -1.0      0.65325474      4.05109423      0.60466778
        92        31         2       0.5      0.75516025      4.14802462      0.77384156
        93        31         2       0.5      0.55134923      3.95416385      0.43549400
        94        32         1      -1.0      1.81030934      4.15317653      0.64197490
        95        32         2       0.5      2.00077314      4.20657884      0.73826473
        96        32         2       0.5      1.61984553      4.09977421      0.54568507
        97        33         1      -1.0      2.90290280      4.12776278      0.63296962
        98        33         2       0.5      3.06290003      4.22704883      0.74673765
        99        33         2       0.5      2.74290556      4.02847673      0.51920158
       100        34         1      -1.0      4.13875033      4.09653802      0.66283962
       101        34         2       0.5      4.30591884      4.23345314      0.70417895
       102        34         2       0.5      3.97158182      3.95962290      0.62150029
       103        35         1      -1.0      5.28241252      4.11014757      0.60845194
       104        35         2       0.5      5.33429445      4.31181696      0.67942885
       105        35         2       0.5      5.23053059      3.90847817      0.53747504
       106        36         1      -1.0      6.35538983      4.04563271      0.59979026
       107        36         2       0.5      6.45290732      4.24239442      0.61302529
       108        36         2       0.5      6.25787234      3.84887099      0.58655523
       109        37         1      -1.0      7.51792984      4.09549225      0.67227476
       110        37         2       0.5      7.59777527      4.27567351      0.77004707
       111        37         2       0.5      7.43808441      3.91531100      0.57450245
       112        38         1      -1.0      8.70799825      4.08655263      0.62487139
       113        38         2       0.5      8.83504568      4.22970998      0.73333762
       114        38         2       0.5      8.58095083      3.94339527      0.51640516
       115        39         1      -1.0      9.82012066      4.04330141      0.63885400
       116        39         2       0.5      9.86447897      4.22698141      0.75152165
       117        39         2       0.5      9.77576235      3.85962141      0.52618636
       118        40         1      -1.0     11.03009146      4.06684994      0.67230105
       119        40         2       0.5     11.13583469      4.09898030      0.86252725
       120        40         2       0.5     10.92434822      4.03471958      0.48207485
       121        41         1      -1.0      0.66703772      5.23771010      0.63702200
       122        41         2       0.5      0.79845623      5.41391347      0.64605235
       123        41         2       0.5      0.53561921      5.06150672      0.62799166
       124        42         1      -1.0      1.76341246      5.25887551      0.62249221
       125        42         2       0.5      1.83824790      5.36253532      0.80152935
       126        42         2       0.5      1.68857701      5.15521570      0.44345506
       127        43         1      -1.0      2.96000354      5.30608362      0.58699624
       128        43         2       0.5      3.04649692      5.47481109      0.69857553
       129        43         2       0.5      2.87351016      5.13735615      0.47541696
       130        44         1      -1.0      4.14437977      5.22621728      0.62972989
       131        44         2       0.5      4.20253758      5.42032604      0.71540051
       132        44         2       0.5      4.08622195      5.03210851      0.54405926
       133        45         1      -1.0      5.30131780      5.25191678      0.65905456
       134        45         2       0.5      5.46152765      5.38054766      0.73771144
       135        45         2       0.5      5.14110796      5.12328591      0.58039769
       136        46         1      -1.0      6.46254613      5.21333554      0.68586563
       137        46         2       0.5      6.55519497      5.30796093      0.86154211
       138        46         2       0.5      6.36989728      5.11871015      0.51018914
       139        47         1      -1.0      7.58701623      5.26098231      0.67009023
       140        47         2       0.5      7.70704091      5.34340878      0.83501431
       141        47         2       0.5      7.46699155      5.17855584      0.50516614
       142        48         1      -1.0      8.71453222      5.24468346      0.58861774
       143        48         2       0.5      8.77417499      5.43281247      0.68582995
       144        48         2       0.5      8.65488945      5.05655444      0.49140553
       145        49         1      -1.0      9.85203259      5.22465374      0.66772003
       146        49         2       0.5      9.95074764      5.27449546      0.85790716
       147        49         2       0.5      9.75331754      5.17481203      0.47753291
       148        50         1      -1.0     11.01052818      5.24922156      0.64031965
       149        50         2       0.5     11.10863709      5.38535181      0.78259824
       150        50         2       0.5     10.91241927      5.11309130      0.49804106
       151        51         1      -1.0      0.66379323      6.37541539      0.63873569
       152        51         2       0.5      0.75209185      6.57136156      0.68572987
       153        51         2       0.5      0.57549461      6.17946922      0.59174152
       154        52         1      -1.0      1.74081159      6.38579417      0.68920086
       155        52         2       0.5      1.81958214      6.42479355      0.89087944
       156        52         2       0.5      1.66204104      6.34679480      0.48752228
       157        53         1      -1.0      2.92237289      6.46318870      0.63743050
       158        53         2       0.5      2.99642702      6.61373952      0.77973453
       159        53         2       0.5      2.84831876      6.31263788      0.49512648
       160        54         1      -1.0      4.06889971      6.41497871      0.69214455
       161        54         2       0.5      4.20971389      6.50147646      0.83736682
       162        54         2       0.5      3.92808554      6.32848096      0.54692229
       163        55         1      -1.0      5.25891007      6.38639035      0.62530914
       164        55         2       0.5      5.28490756      6.52734262      0.79221207
       165        55         2       0.5      5.23291258      6.24543808      0.45840620
       166        56         1      -1.0      6.36011253      6.46022970      0.63975718
       167        56         2       0.5      6.51378692      6.55093488      0.76843022
       168        56         2       0.5      6.20643814      6.36952452      0.51108413
       169        57         1      -1.0      7.57665439      6.45204181      0.58055842
       170        57         2       0.5      7.62922226      6.59588555      0.73850017
       171        57         2       0.5      7.52408652      6.30819806      0.42261667
       172        58         1      -1.0      8.73592456      6.45604389      0.62901399
       173        58         2       0.5      8.88216037      6.61793286      0.65742256
       174        58         2       0.5      8.58968874      6.29415492      0.60060542
       175        59         1      -1.0      9.82568799      6.44036859      0.62115799
       176        59         2       0.5      9.84568885      6.59842477      0.77287552
       177        59         2       0.5      9.80568712      6.28231242      0.46944045
       178        60         1      -1.0     11.05035207      6.44241541      0.58865936
       179        60         2       0.5     11.21373843      6.51654289      0.71597791
       180        60         2       0.5     10.88696570      6.36828794      0.46134081
       181        61         1      -1.0      0.65040769      7.53485823      0.59947561
       182        61         2       0.5      0.80645235      7.65863158      0.69291125
       183        61         2       0.5      0.49436302      7.41108488      0.50603997
       184        62         1      -1.0      1.75637020      7.51103848      0.58685075
       185        62         2       0.5      1.91057463      7.65724465      0.64381347
       186        62         2       0.5      1.60216578      7.36483231      0.52988804
       187        63         1      -1.0      2.96177134      7.51192552      0.61371428
       188        63         2       0.5      3.11771538      7.63807551      0.70408924
       189        63         2       0.5      2.80582729      7.38577552      0.52333931
       190        64         1      -1.0      4.05938447      7.51590335      0.60838941
       191        64         2       0.5      4.26337457      7.59742497      0.62031677
       192        64         2       0.5      3.85539436      7.43438173      0.59646205
       193        65         1      -1.0      5.28400625      7.54183044      0.59773882
       194        65         2       0.5      5.36558826      7.67990105      0.74834056
       195        65         2       0.5      5.20242425      7.40375983      0.44713709
       196        66         1      -1.0      6.37972825      7.61264642      0.58497824
       197        66         2       0.5      6.52712390      7.77198262      0.62084606
       198        66         2       0.5      6.23233260      7.45331023      0.54911042
       199        67         1      -1.0      7.52036630      7.57190352      0.61634141
       200        67         2       0.5      7.71000620      7.68280737      0.62804807
       201        67         2       0.5      7.33072641      7.46099968      0.60463476
       202        68         1      -1.0      8.73468270      7.59621444      0.58022132
       203        68         2       0.5      8.95413847      7.60765405      0.59062812
       204        68         2       0.5      8.51522694      7.58477483      0.56981452
       205        69         1      -1.0      9.84378348      7.53865461      0.64877393
       206        69         2       0.5      9.99398790      7.65357408      0.76116677
       207        69         2       0.5      9.69357905      7.42373515      0.53638110
       208        70         1      -1.0     10.97853171      7.51411402      0.68144934
       209        70         2       0.5     11.11499657      7.68411858      0.71104313
       210        70         2       0.5     10.84206686      7.34410946      0.65185554
       211        71         1      -1.0      0.60733929      8.67866027      0.65090861
       212        71         2       0.5      0.62207266      8.89728101      0.67060377
       213        71         2       0.5      0.59260591      8.46003953      0.63121345
       214        72         1      -1.0      1.81670880      8.74022693      0.64176291
       215        72         2       0.5      1.81993906      8.81026893      0.85029033
       216        72         2       0.5      1.81347854      8.67018493      0.43323549
       217        73         1      -1.0      2.99338834      8.69415258      0.66204673
       218        73         2       0.5      3.07722178      8.80946919      0.82959981
       219        73         2       0.5      2.90955491      8.57883596      0.49449365
       220        74         1      -1.0      4.14735668      8.67592623      0.67207613
       221        74         2       0.5      4.22074175      8.79103498      0.84460035
       222        74         2       0.5      4.07397161      8.56081748      0.49955191
       223        75         1      -1.0      5.26677468      8.68655173      0.64492055
       224        75         2       0.5      5.29284526      8.81558210      0.82119161
       225        75         2       0.5      5.24070409      8.55752135      0.46864949
       226        76         1      -1.0      6.39578788      8.66688501      0.63158324
       227        76         2       0.5      6.57375418      8.74622552      0.73372568
       228        76         2       0.5      6.21782159      8.58754449      0.52944079
       229        77         1      -1.0      7.52737286      8.67156893      0.67398610
       230        77         2       0.5      7.62737853      8.85991968      0.72804958
       231        77         2       0.5      7.42736718      8.48321818      0.61992261
       232        78         1      -1.0      8.70564487      8.73260975      0.60591930
       233        78         2       0.5      8.89900164      8.80527786      0.68163262
       234        78         2       0.5      8.51228810      8.65994165      0.53020599
       235        79         1      -1.0      9.82474958      8.70657356      0.64037987
       236        79         2       0.5     10.01095642      8.82348215      0.64808694
       237        79         2       0.5      9.63854275      8.58966498      0.63267280
       238        80         1      -1.0     11.08143441      8.69111851      0.69009668
       239        80         2       0.5     11.29940106      8.70456780      0.71673602
       240        80         2       0.5     10.86346775      8.67766921      0.66345734
       241        81         1      -1.0      0.66027655      9.88577259      0.67908737
       242        81         2       0.5      0.75633834      9.98000472      0.85313460
       243        81         2       0.5      0.56421476      9.79154046      0.50504014
       244        82         1      -1.0      1.78882087      9.91557803      0.60414433
       245        82         2       0.5      1.84677008      9.94582066      0.81420925
       246        82         2       0.5      1.73087166      9.88533540      0.39407940
       247        83         1      -1.0      2.92190739      9.92103407      0.59455495
       248        83         2       0.5      3.12281804      9.99175106      0.64963687
       249        83         2       0.5      2.72099674      9.85031709      0.53947303
       250        84         1      -1.0      4.06679233      9.91395289      0.63509224
       251        84         2       0.5      4.26119372      9.91950087      0.73793833
       252        84         2       0.5      3.87239094      9.90840492      0.53224614
       253        85         1      -1.0      5.19897517      9.82247369      0.67239244
       254        85         2       0.5      5.36134492      9.89312739      0.80294557
       255        85         2       0.5      5.03660542      9.75182000      0.54183931
       256        86         1      -1.0      6.44956635      9.84689360      0.67983874
       257        86         2       0.5      6.57337827      9.99008192      0.79194455
       258        86         2       0.5      6.32575444      9.70370527      0.56773293
       259        87         1      -1.0      7.59216086      9.91151328      0.68415796
       260        87         2       0.5      7.73058589     10.07375230      0.73816732
       261        87         2       0.5      7.45373583      9.74927426      0.63014860
       262        88         1      -1.0      8.68577032      9.87206624      0.67503129
       263        88         2       0.5      8.85903189      9.91995586      0.80186588
       264        88         2       0.5      8.51250875      9.82417662      0.54819670
       265        89         1      -1.0      9.83838976      9.90719593      0.57919779
       266        89         2       0.5      9.86825153      9.92683000      0.79627561
       267        89         2       0.5      9.80852798      9.88756185      0.36211998
       268        90         1      -1.0     10.97964878      9.88249967      0.62712166
       269        90         2       0.5     11.12539735      9.97319011      0.76471745
       270        90         2       0.5     10.83390022      9.79180923      0.48952588
       271        91         1      -1.0      0.58436017     11.05006771      0.59624212
       272        91         2       0.5      0.77300587     11.09489753      0.70018003
       273        91         2       0.5      0.39571447     11.00523790      0.49230422
       274        92         1      -1.0      1.80563969     10.96721839      0.69224933
       275        92         2       0.5      1.85394882     11.17116888      0.75911056
       276        92         2       0.5      1.75733056     10.76326790      0.62538809
       277        93         1      -1.0      2.94783056     11.07924200      0.65685920
       278        93         2       0.5      3.13637910     11.12315964      0.76136130
       279        93         2       0.5      2.75928202     11.03532435      0.55235710
       280        94         1      -1.0      4.06669473     11.03531268      0.60517804
       281        94         2       0.5      4.11602514     11.24524898      0.64868966
       282        94         2       0.5      4.01736432     10.82537639      0.56166643
       283        95         1      -1.0      5.19568888     11.06537037      0.62090049
       284        95         2       0.5      5.33635943     11.19736318      0.72668184
       285        95         2       0.5      5.05501833     10.93337755      0.51511914
       286        96         1      -1.0      6.39776254     11.02044066      0.62786179
       287        96         2       0.5      6.55594613     11.10124186      0.75766594
       288        96         2       0.5      6.23957896     10.93963946      0.49805763
       289        97         1      -1.0      7.53707985     11.00371317      0.58027628
       290        97         2       0.5      7.66708958     11.11944221      0.71482835
       291        97         2       0.5      7.40707012     10.88798414      0.44572420
       292        98         1      -1.0      8.73160356     11.02230075      0.63229599
       293        98         2       0.5      8.88450536     11.17311507      0.68000427
       294        98         2       0.5      8.57870177     10.87148642      0.58458771
       295        99         1      -1.0      9.81855926     11.00096110      0.64941294
       296        99         2       0.5      9.87695484     11.12326815      0.82270732
       297        99         2       0.5      9.76016369     10.87865404      0.47611857
       298       100         1      -1.0     11.00018313     11.01850151      0.63405873
       299       100         2       0.5     11.12768672     11.19750739      0.64404527
       300       100         2       0.5     10.87267954     10.83949564      0.62407219
       301       101         1      -1.0      0.68508804      0.65785631      1.82329064
       302       101         2       0.5      0.71266930      0.87595383      1.83181959
       303       101         2       0.5      0.65750678      0.43975878      1.81476169
       304       102         1      -1.0      1.81566838      0.58360038      1.75209991
       305       102         2       0.5      1.96957051      0.59270743      1.90904320
       306       102         2       0.5      1.66176626      0.57449332      1.59515663
       307       103         1      -1.0      2.99649586      0.60841470      1.73688278
       308       103         2       0.5      3.05245716      0.64676593      1.94616134
       309       103         2       0.5      2.94053457      0.57006347      1.52760421
       310       104         1      -1.0      4.14705891      0.66315061      1.78181190
       311       104         2       0.5      4.24503507      0.75967084      1.95352246
       312       104         2       0.5      4.04908274      0.56663038      1.61010134
       313       105         1      -1.0      5.27953350      0.60393043      1.79549882
       314       105         2       0.5      5.41402979      0.74055028      1.90341436
       315       105         2       0.5      5.14503720      0.46731057      1.68758329
       316       106         1      -1.0      6.41594476      0.59910074      1.77816698
       317       106         2       0.5      6.61603953      0.63763549      1.86109561
       318       106         2       0.5      6.21585000      0.56056599      1.69523835
       319       107         1      -1.0      7.54660004      0.66932438      1.79608053
       320       107         2       0.5      7.67132256      0.77587881      1.94267673
       321       107         2       0.5      7.42187752      0.56276994      1.64948433
       322       108         1      -1.0      8.70588681      0.68303636      1.80839644
       323       108         2       0.5      8.87684016      0.81841235      1.83752190
       324       108         2       0.5      8.53493346      0.54766037      1.77927098
       325       109         1      -1.0      9.82957283      0.68246900      1.76219549
       326       109         2       0.5      9.91560521      0.78659025      1.93585377
       327       109         2       0.5      9.74354045      0.57834776      1.58853722
       328       110         1      -1.0     10.99335438      0.60334699      1.78075171
       329       110         2       0.5     11.14515252      0.68998174      1.91436213
       330       110         2       0.5     10.84155624      0.51671225      1.64714129