# 3D starting configuration for LAMMPS created with a script available at
# https://github.com/Zirbo/IPCsim/tree/master/lammps

            3000 atoms
            2000 bonds
            1000 angles

               3 atom types
               1 bond types
               1 angle types

      0.00000000     11.54415673     xlo xhi
      0.00000000     11.54415673     ylo yhi
      0.00000000     11.54415673     zlo zhi

Masses
#  atomtype, mass
         1       2.0
         2       0.5
         3       0.5

Atoms
#  atom-ID mol-ID atom-type charge    x               y               z
         1         1         1      -1.0      0.60455058      0.59894752      0.62269346
         2         1         2       0.5      0.79457443      0.70906469      0.63554434
         3         1         3       0.5      0.41452673      0.48883035      0.60984259
         4         2         1      -1.0      1.74471938      0.68522222      0.59036315
         5         2         2       0.5      1.88761771      0.79354791      0.71782144
         6         2         3       0.5      1.60182106      0.57689654      0.46290486
         7         3         1      -1.0      2.96925944      0.65260107      0.65625486
         8         3         2       0.5      3.06826933      0.80659565      0.77824957
         9         3         3       0.5      2.87024955      0.49860649      0.53426015
        10         4         1      -1.0      4.06128320      0.63931619      0.67364791
        11         4         2       0.5      4.20246141      0.77251910      0.77721287
        12         4         3       0.5      3.92010499      0.50611329      0.57008296
        13         5         1      -1.0      5.20208654      0.67942194      0.63740248
        14         5         2       0.5      5.26269797      0.83234168      0.78349083
        15         5         3       0.5      5.14147511      0.52650220      0.49131413
        16         6         1      -1.0      6.38774079      0.66804441      0.67837557
        17         6         2       0.5      6.60280361      0.70483617      0.70655976
        18         6         3       0.5      6.17267797      0.63125264      0.65019137
        19         7         1      -1.0      7.53355838      0.62339955      0.60300559
        20         7         2       0.5      7.59278543      0.80712144      0.70854432
        21         7         3       0.5      7.47433133      0.43967766      0.49746686
        22         8         1      -1.0      8.72195044      0.59137690      0.68800909
        23         8         2       0.5      8.87321037      0.73130923      0.76507645
        24         8         3       0.5      8.57069051      0.45144456      0.61094174
        25         9         1      -1.0      9.84834680      0.66217367      0.64279820
        26         9         2       0.5      9.99489915      0.81108045      0.71171250
        27         9         3       0.5      9.70179446      0.51326689      0.57388391
        28        10         1      -1.0     11.02565984      0.61980417      0.61282847
        29        10         2       0.5     11.16631376      0.68914618      0.76712741
        30        10         3       0.5     10.88500593      0.55046217      0.45852953
        31        11         1      -1.0      0.68045279      1.81669491      0.62276323
        32        11         2       0.5      0.84125723      1.82361844      0.77274323
        33        11         3       0.5      0.51964836      1.80977137      0.47278324
        34        12         1      -1.0      1.84001842      1.79974074      0.67735594
        35        12         2       0.5      1.93331080      1.88340745      0.85817744
        36        12         3       0.5      1.74672605      1.71607403      0.49653444
        37        13         1      -1.0      2.92626285      1.81567944      0.67876660
        38        13         2       0.5      2.94133522      1.97623245      0.82841804
        39        13         3       0.5      2.91119048      1.65512643      0.52911515
        40        14         1      -1.0      4.05169979      1.81824912      0.63603576
        41        14         2       0.5      4.18704305      1.92744146      0.77079196
        42        14         3       0.5      3.91635652      1.70905679      0.50127955
        43        15         1      -1.0      5.24206599      1.78726162      0.58255111
        44        15         2       0.5      5.40624045      1.85200113      0.71391147
        45        15         3       0.5      5.07789153      1.72252212      0.45119075
        46        16         1      -1.0      6.44739316      1.74400366      0.58700695
        47        16         2       0.5      6.66185429      1.79154717      0.59909155
        48        16         3       0.5      6.23293202      1.69646016      0.57492235
        49        17         1      -1.0      7.50505139      1.80061508      0.67100672
        50        17         2       0.5      7.58541822      1.93770924      0.82314601
        51        17         3       0.5      7.42468457      1.66352092      0.51886742
        52        18         1      -1.0      8.75899132      1.78738401      0.63522261
        53        18         2       0.5      8.94838816      1.89617532      0.66155295
        54        18         3       0.5      8.56959447      1.67859269      0.60889227
        55        19         1      -1.0      9.92326582      1.79781031      0.60164837
        56        19         2       0.5     10.04843456      1.89570782      0.75379589
        57        19         3       0.5      9.79809709      1.69991281      0.44950085
        58        20         1      -1.0     11.07869120      1.73899324      0.67250428
        59        20         2       0.5     11.12455105      1.81622689      0.87333216
        60        20         3       0.5     11.03283135      1.66175960      0.47167640
        61        21         1      -1.0      0.65046686      2.93534988      0.64343387
        62        21         2       0.5      0.82861209      3.05103436      0.70071719
        63        21         3       0.5      0.47232164      2.81966540      0.58615054
        64        22         1      -1.0      1.76716251      2.97762449      0.66412222
        65        22         2       0.5      1.89597275      3.03199157      0.83398140
        66        22         3       0.5      1.63835227      2.92325741      0.49426303
        67        23         1      -1.0      2.97304965      2.95138868      0.61604698
        68        23         2       0.5      3.04505023      3.09130274      0.76979994
        69        23         3       0.5      2.90104906      2.81147462      0.46229402
        70        24         1      -1.0      4.11943153      2.98726731      0.66686328
        71        24         2       0.5      4.20561701      3.11549488      0.82348306
        72        24         3       0.5      4.03324605      2.85903974      0.51024351
        73        25         1      -1.0      5.30211877      2.96036759      0.61417181
        74        25         2       0.5      5.33457685      3.13807495      0.73973680
        75        25         3       0.5      5.26966069      2.78266023      0.48860683
        76        26         1      -1.0      6.36918016      2.92772776      0.65236609
        77        26         2       0.5      6.49625348      3.05733921      0.77667718
        78        26         3       0.5      6.24210685      2.79811632      0.52805500
        79        27         1      -1.0      7.58501867      2.89370771      0.59361211
        80        27         2       0.5      7.65612079      3.02920899      0.75167504
        81        27         3       0.5      7.51391655      2.75820642      0.43554918
        82        28         1      -1.0      8.73046029      2.96739262      0.61239539
        83        28         2       0.5      8.91427695      3.07171048      0.67346273
        84        28         3       0.5      8.54664363      2.86307476      0.55132805
        85        29         1      -1.0      9.85826152      2.93819799      0.64497589
        86        29         2       0.5      9.94158468      3.09020290      0.78044456
        87        29         3       0.5      9.77493836      2.78619309      0.50950723
        88        30         1      -1.0     11.04747887      2.95893751      0.57911870
        89        30         2       0.5     11.16935089      3.13483893      0.63016673
        90        30         3       0.5     10.92560685      2.78303609      0.52807068
        91        31         1      -1.0      0.69107593      4.13709997      0.62523672
        92        31         2       0.5      0.84402641      4.29473781      0.63774527
        93        31         3       0.5      0.53812545      3.97946214      0.61272817
        94        32         1      -1.0      1.75268717      4.14580307      0.65403486
        95        32         2       0.5      1.77831267      4.18994423      0.86803227
        96        32         3       0.5      1.72706166      4.10166191      0.44003745
        97        33         1      -1.0      2.96299026      4.06312177      0.66252890
        98        33         2       0.5      3.08966217      4.19701940      0.78263573
        99        33         3       0.5      2.83631834      3.92922414      0.54242207
       100        34         1      -1.0      4.14080466      4.13685517      0.60865856
       101        34         2       0.5      4.35600829      4.15760524      0.64936277
       102        34         3       0.5      3.92560103      4.11610510      0.56795435
       103        35         1      -1.0      5.20792093      4.15584105      0.63649198
       104        35         2       0.5      5.29204578      4.27717001      0.79959407
       105        35         3       0.5      5.12379608      4.03451209      0.47338988
       106        36         1      -1.0      6.40053976      4.10090229      0.58375467
       107        36         2       0.5      6.47042902      4.26390532      0.71392956
       108        36         3       0.5      6.33065049      3.93789925      0.45357979
       109        37         1      -1.0      7.55035684      4.14712296      0.62188243
       110        37         2       0.5      7.64280986      4.20176709      0.81388883
       111        37         3       0.5      7.45790382      4.09247882      0.42987603
       112        38         1      -1.0      8.76491250      4.13902801      0.69052915
       113        38         2       0.5      8.85159249      4.15222618      0.89230226
       114        38         3       0.5      8.67823251      4.12582984      0.48875604
       115        39         1      -1.0      9.82941909      4.13887625      0.62103769
       116        39         2       0.5      9.97980825      4.25202171      0.73497278
       117        39         3       0.5      9.67902993      4.02573079      0.50710259
       118        40         1      -1.0     11.02904470      4.04299589      0.62358231
       119        40         2       0.5     11.19029416      4.16927648      0.70390557
       120        40         3       0.5     10.86779525      3.91671530      0.54325904
       121        41         1      -1.0      0.57815012      5.24889316      0.61123455
       122        41         2       0.5      0.74745626      5.28996859      0.74557829
       123        41         3       0.5      0.40884397      5.20781772      0.47689082
       124        42         1      -1.0      1.77827832      5.23139088      0.65451881
       125        42         2       0.5      1.96253344      5.23895104      0.77448920
       126        42         3       0.5      1.59402320      5.22383073      0.53454841
       127        43         1      -1.0      2.95948695      5.23187626      0.68459245
       128        43         2       0.5      3.05112396      5.41425682      0.76668988
       129        43         3       0.5      2.86784993      5.04949570      0.60249502
       130        44         1      -1.0      4.14747257      5.23551529      0.60977600
       131        44         2       0.5      4.26586093      5.23585297      0.79520545
       132        44         3       0.5      4.02908422      5.23517761      0.42434654
       133        45         1      -1.0      5.29339317      5.20146691      0.60143501
       134        45         2       0.5      5.30495985      5.22005324      0.82034312
       135        45         3       0.5      5.28182648      5.18288058      0.38252690
       136        46         1      -1.0      6.40209854      5.20337010      0.61302754
       137        46         2       0.5      6.40687437      5.38047943      0.74344791
       138        46         3       0.5      6.39732271      5.02626076      0.48260716
       139        47         1      -1.0      7.58431153      5.26534108      0.61024393
       140        47         2       0.5      7.59099204      5.41268031      0.77348155
       141        47         3       0.5      7.57763102      5.11800185      0.44700631
       142        48         1      -1.0      8.71944806      5.21713911      0.58793144
       143        48         2       0.5      8.77615487      5.24443147      0.79873815
       144        48         3       0.5      8.66274126      5.18984676      0.37712474
       145        49         1      -1.0      9.82610543      5.26801311      0.65551728
       146        49         2       0.5      9.88752999      5.38832120      0.82916344
       147        49         3       0.5      9.76468087      5.14770502      0.48187113
       148        50         1      -1.0     11.01049654      5.21385546      0.68558079
       149        50         2       0.5     11.01182075      5.28666087      0.89318045
       150        50         3       0.5     11.00917233      5.14105004      0.47798113
       151        51         1      -1.0      0.58195261      6.44507877      0.58498206
       152        51         2       0.5      0.73120628      6.58422929      0.66720418
       153        51         3       0.5      0.43269895      6.30592826      0.50275994
       154        52         1      -1.0      1.80603364      6.45674889      0.63111439
       155        52         2       0.5      1.87428477      6.61024688      0.77317125
       156        52         3       0.5      1.73778250      6.30325091      0.48905753
       157        53         1      -1.0      2.98088746      6.44483379      0.63509719
       158        53         2       0.5      3.12916129      6.49614756      0.78931057
       159        53         3       0.5      2.83261362      6.39352001      0.48088381
       160        54         1      -1.0      4.14146830      6.41406613      0.59196762
       161        54         2       0.5      4.28468574      6.57845975      0.62135304
       162        54         3       0.5      3.99825086      6.24967251      0.56258220
       163        55         1      -1.0      5.23397761      6.35015985      0.64735654
       164        55         2       0.5      5.38223349      6.47280976      0.75402046
       165        55         3       0.5      5.08572173      6.22750995      0.54069261
       166        56         1      -1.0      6.37888126      6.39247046      0.58202853
       167        56         2       0.5      6.57103973      6.46106863      0.66430499
       168        56         3       0.5      6.18672280      6.32387230      0.49975207
       169        57         1      -1.0      7.52157186      6.39787901      0.59927942
       170        57         2       0.5      7.62663232      6.50599809      0.75950602
       171        57         3       0.5      7.41651140      6.28975993      0.43905282
       172        58         1      -1.0      8.65998324      6.42912934      0.66011373
       173        58         2       0.5      8.67700303      6.48564971      0.87204715
       174        58         3       0.5      8.64296345      6.37260897      0.44818031
       175        59         1      -1.0      9.88391100      6.41428864      0.60666759
       176        59         2       0.5     10.01329319      6.49448912      0.76550126
       177        59         3       0.5      9.75452882      6.33408817      0.44783392
       178        60         1      -1.0     11.01097767      6.43575643      0.59440075
       179        60         2       0.5     11.11913239      6.54310551      0.75307882
       180        60         3       0.5     10.90282294      6.32840735      0.43572268
       181        61         1      -1.0      0.63572575      7.51333299      0.67760267
       182        61         2       0.5      0.84476712      7.51512642      0.74614820
       183        61         3       0.5      0.42668438      7.51153956      0.60905715
       184        62         1      -1.0      1.84633584      7.51075733      0.67622977
       185        62         2       0.5      1.99354039      7.62817533      0.79000073
       186        62         3       0.5      1.69913128      7.39333932      0.56245881
       187        63         1      -1.0      2.93753730      7.59739409      0.64165202
       188        63         2       0.5      2.97610604      7.75251022      0.79281894
       189        63         3       0.5      2.89896855      7.44227795      0.49048511
       190        64         1      -1.0      4.10194346      7.56192842      0.58317635
       191        64         2       0.5      4.29829188      7.57135506      0.68196115
       192        64         3       0.5      3.90559505      7.55250178      0.48439154
       193        65         1      -1.0      5.26852900      7.52809343      0.57769277
       194        65         2       0.5      5.31622415      7.74221392      0.59435374
       195        65         3       0.5      5.22083386      7.31397294      0.56103181
       196        66         1      -1.0      6.43641533      7.55821017      0.60468468
       197        66         2       0.5      6.55613746      7.73696121      0.65067031
       198        66         3       0.5      6.31669320      7.37945913      0.55869906
       199        67         1      -1.0      7.59430025      7.60687463      0.59434535
       200        67         2       0.5      7.70250870      7.65489246      0.77977787
       201        67         3       0.5      7.48609179      7.55885680      0.40891283
       202        68         1      -1.0      8.74340804      7.56191324      0.62161597
       203        68         2       0.5      8.80939179      7.73722861      0.73698782
       204        68         3       0.5      8.67742428      7.38659786      0.50624411
       205        69         1      -1.0      9.90352471      7.58948205      0.68362518
       206        69         2       0.5     10.09028907      7.68094022      0.75541986
       207        69         3       0.5      9.71676035      7.49802388      0.61183050
       208        70         1      -1.0     11.08028101      7.53312392      0.61419652
       209        70         2       0.5     11.10785197      7.55600328      0.83125959
       210        70         3       0.5     11.05271004      7.51024456      0.39713344
       211        71         1      -1.0      0.60176587      8.71277182      0.60489893
       212        71         2       0.5      0.65835629      8.74107142      0.81560407
       213        71         3       0.5      0.54517545      8.68447221      0.39419379
       214        72         1      -1.0      1.74489721      8.71563120      0.62760826
       215        72         2       0.5      1.88706349      8.87842184      0.66869302
       216        72         3       0.5      1.60273094      8.55284056      0.58652351
       217        73         1      -1.0      2.97088617      8.72639277      0.59999405
       218        73         2       0.5      3.05372419      8.87902240      0.73505722
       219        73         3       0.5      2.88804815      8.57376315      0.46493087
       220        74         1      -1.0      4.10842965      8.67340786      0.60342494
       221        74         2       0.5      4.27231271      8.79203283      0.68985676
       222        74         3       0.5      3.94454660      8.55478288      0.51699311
       223        75         1      -1.0      5.23792200      8.67064020      0.66648881
       224        75         2       0.5      5.30942053      8.75521788      0.85657978
       225        75         3       0.5      5.16642348      8.58606253      0.47639783
       226        76         1      -1.0      6.39956199      8.72896657      0.68672500
       227        76         2       0.5      6.61260990      8.78198069      0.70087035
       228        76         3       0.5      6.18651408      8.67595246      0.67257965
       229        77         1      -1.0      7.55430084      8.70205569      0.61269066
       230        77         2       0.5      7.71049327      8.85651693      0.62475918
       231        77         3       0.5      7.39810840      8.54759445      0.60062214
       232        78         1      -1.0      8.67799854      8.67700092      0.63910094
       233        78         2       0.5      8.89112257      8.71892364      0.67403853
       234        78         3       0.5      8.46487452      8.63507819      0.60416334
       235        79         1      -1.0      9.86838276      8.75127868      0.63907209
       236        79         2       0.5     10.03677369      8.86350861      0.72537931
       237        79         3       0.5      9.69999184      8.63904874      0.55276486
       238        80         1      -1.0     11.05177496      8.73185932      0.61790631
       239        80         2       0.5     11.18856568      8.84249406      0.74999815
       240        80         3       0.5     10.91498425      8.62122459      0.48581446
       241        81         1      -1.0      0.67061070      9.86821323      0.67864666
       242        81         2       0.5      0.85827375      9.88506252      0.79221901
       243        81         3       0.5      0.48294765      9.85136393      0.56507430
       244        82         1      -1.0      1.78914678      9.87218386      0.57848058
       245        82         2       0.5      1.96784043      9.92078594      0.69725101
       246        82         3       0.5      1.61045312      9.82358178      0.45971015
       247        83         1      -1.0      2.99096169      9.85898389      0.67799520
       248        83         2       0.5      3.18126566      9.92706718      0.76488054
       249        83         3       0.5      2.80065771      9.79090060      0.59110986
       250        84         1      -1.0      4.12863207      9.83028439      0.59935699
       251        84         2       0.5      4.23733046      9.87042138      0.78636951
       252        84         3       0.5      4.01993367      9.79014740      0.41234447
       253        85         1      -1.0      5.26761263      9.82858385      0.59492797
       254        85         2       0.5      5.35798312      9.92928079      0.76840217
       255        85         3       0.5      5.17724213      9.72788692      0.42145376
       256        86         1      -1.0      6.44746501      9.85174979      0.60853052
       257        86         2       0.5      6.58634458      9.98275826      0.71784312
       258        86         3       0.5      6.30858544      9.72074131      0.49921792
       259        87         1      -1.0      7.60121927      9.81723620      0.66495585
       260        87         2       0.5      7.74693557      9.93592900      0.77931833
       261        87         3       0.5      7.45550297      9.69854340      0.55059336
       262        88         1      -1.0      8.74351821      9.82702058      0.59512802
       263        88         2       0.5      8.93439422      9.89988147      0.67672239
       264        88         3       0.5      8.55264220      9.75415969      0.51353366
       265        89         1      -1.0      9.82919242      9.86028199      0.67766108
       266        89         2       0.5      9.97497356     10.01580297      0.73207694
       267        89         3       0.5      9.68341127      9.70476102      0.62324523
       268        90         1      -1.0     11.05024116      9.85757577      0.63749179
       269        90         2       0.5     11.16537325     10.02516152      0.72151333
       270        90         3       0.5     10.93510908      9.68999001      0.55347026
       271        91         1      -1.0      0.58996128     10.96833580      0.58899650
       272        91         2       0.5      0.73021284     11.01818722      0.75099754
       273        91         3       0.5      0.44970973     10.91848437      0.42699546
       274        92         1      -1.0      1.73490361     11.00799834      0.63776274
       275        92         2       0.5      1.78288821     11.18865523      0.75378241
       276        92         3       0.5      1.68691900     10.82734144      0.52174307
       277        93         1      -1.0      2.89022227     11.06327962      0.66447274
       278        93         2       0.5      3.00252017     11.21247132      0.78079566
       279        93         3       0.5      2.77792438     10.91408793      0.54814983
       280        94         1      -1.0      4.09520500     11.01494762      0.69002877
       281        94         2       0.5      4.30426022     11.07971931      0.71240160
       282        94         3       0.5      3.88614978     10.95017594      0.66765595
       283        95         1      -1.0      5.25721114     11.07289133      0.66244288
       284        95         2       0.5      5.36031980     11.26399276      0.69778189
       285        95         3       0.5      5.15410248     10.88178989      0.62710387
       286        96         1      -1.0      6.42126129     10.97078523      0.60314078
       287        96         2       0.5      6.46065711     11.08159373      0.78906939
       288        96         3       0.5      6.38186547     10.85997673      0.41721218
       289        97         1      -1.0      7.61535391     11.02710115      0.61467209
       290        97         2       0.5      7.73764131     11.14531787      0.75420919
       291        97         3       0.5      7.49306652     10.90888444      0.47513500
       292        98         1      -1.0      8.74169764     11.00037379      0.59161127
       293        98         2       0.5      8.81408703     11.05520936      0.79199300
       294        98         3       0.5      8.66930826     10.94553822      0.39122954
       295        99         1      -1.0      9.92395797     11.01429944      0.63530270
       296        99         2       0.5     10.06897915     11.12826444      0.75522283
       297        99         3       0.5      9.77893678     10.90033445      0.51538258
       298       100         1      -1.0     11.06605448     11.03822162      0.68468683
       299       100         2       0.5     11.27877109     11.08096775      0.72107931
       300       100         3       0.5     10.85333787     10.99547548      0.64829436
       301       101         1      -1.0      0.62602238      0.66767614      1.82788779
       302       101         2       0.5      0.66752486      0.84307770      1.95402992
       303       101         3       0.5      0.58451990      0.49227459      1.70174565
       304       102         1      -1.0      1.74137198      0.65270692      1.81736106
       305       102         2       0.5      1.85481057      0.79656409      1.93916748
       306       102         3       0.5      1.62793340      0.50884975      1.69555465
       307       103         1      -1.0      2.95883186      0.61993367      1.80828425
       308       103         2       0.5      3.10994881      0.75977817      1.88579025
       309       103         3       0.5      2.80771490      0.48008916      1.73077826
       310       104         1      -1.0      4.05871685      0.62313290      1.77159919
       311       104         2       0.5      4.14937717      0.73501438      1.93792189
       312       104         3       0.5      3.96805652      0.51125142      1.60527649
       313       105         1      -1.0      5.25146983      0.66267017      1.80955650
       314       105         2       0.5      5.37344197      0.68503996      1.99127713
       315       105         3       0.5      5.12949768      0.64030038      1.62783587
       316       106         1      -1.0      6.41830897      0.65228512      1.75751616
       317       106         2       0.5      6.53541270      0.82964688      1.81434506
       318       106         3       0.5      6.30120525      0.47492336      1.70068727
       319       107         1      -1.0      7.58441372      0.64285501      1.83046637
       320       107         2       0.5      7.69660159      0.80355469      1.93041383
       321       107         3       0.5      7.47222585      0.48215533      1.73051891
       322       108         1      -1.0      8.71297972      0.59338995      1.83556343
       323       108         2       0.5      8.93163247      0.61226769      1.85088020
       324       108         3       0.5      8.49432696      0.57451221      1.82024666
       325       109         1      -1.0      9.86259293      0.65070040      1.84326401
       326       109         2       0.5     10.05634413      0.75489900      1.84503197
       327       109         3       0.5      9.66884173      0.54650181      1.84149604
       328       110         1      -1.0     11.03183721      0.59877539      1.78878219
       329       110         2       0.5     11.18721110      0.73087772      1.87129236
       330       110         3       0.5     10.87646333      0.46667306      1.70627201