# 3D starting configuration for LAMMPS created with a script available at
# https://github.com/Zirbo/IPCsim/tree/master/lammps

             432 atoms
             324 bonds
             324 angles

               2 atom types
               1 bond types
               1 angle types

      0.00000000      5.64621617     xlo xhi
      0.00000000      5.64621617     ylo yhi
      0.00000000      5.64621617     zlo zhi

Masses
#  atomtype, mass
         1       2.4
         2       0.2

Atoms
#  atom-ID mol-ID atom-type charge    x               y               z
         1         1         1      -0.9      0.95907718      0.98315190      0.95633056
         2         1         2       0.3      1.08775573      1.08299798      1.10422441
         3         1         2       0.3      0.95513552      1.10521859      0.93780621
         4         1         2       0.3      0.83434030      0.76123914      0.82696105
         5         2         1      -0.9      2.85295078      0.97266718      0.95619208
         6         2         2       0.3      2.93444898      1.00463285      1.15802428
         7         2         2       0.3      2.99703061      0.99418242      0.88233445
         8         2         2       0.3      2.62737274      0.91918629      0.82821749
         9         3         1      -0.9      4.74309171      0.96725100      0.95955996
        10         3         2       0.3      4.81640898      1.02961332      1.15738696
        11         3         2       0.3      4.84447872      1.06737841      0.86185484
        12         3         2       0.3      4.56838743      0.80476128      0.85943809
        13         4         1      -0.9      0.96925961      2.86224541      0.95750811
        14         4         2       0.3      1.09614473      2.98586028      1.08796703
        15         4         2       0.3      1.08215190      2.82321175      0.96074305
        16         4         2       0.3      0.72948219      2.77766420      0.82381425
        17         5         1      -0.9      2.86261228      2.82633568      0.95147496
        18         5         2       0.3      2.86709196      3.00968428      1.07297895
        19         5         2       0.3      3.03846965      2.73589377      0.95839766
        20         5         2       0.3      2.68227523      2.73342897      0.82304826
        21         6         1      -0.9      4.70886795      2.83336745      0.94264139
        22         6         2       0.3      4.84295976      2.97219157      1.04822192
        23         6         2       0.3      4.80309048      2.81661074      0.97656849
        24         6         2       0.3      4.48055360      2.71130003      0.80313374
        25         7         1      -0.9      0.94919025      4.76040550      0.96376692
        26         7         2       0.3      1.01246192      4.80051862      1.17061864
        27         7         2       0.3      1.04245204      4.88381644      0.87118817
        28         7         2       0.3      0.79265679      4.59688144      0.84949396
        29         8         1      -0.9      2.87713853      4.70805471      0.97194762
        30         8         2       0.3      3.02984716      4.76771038      1.11864894
        31         8         2       0.3      2.80254534      4.84948538      0.98206804
        32         8         2       0.3      2.79902310      4.50696836      0.81512589
        33         9         1      -0.9      4.73328963      4.71655261      0.98644864
        34         9         2       0.3      4.82970693      4.89504271      1.07156613
        35         9         2       0.3      4.87181159      4.66174962      0.95955584
        36         9         2       0.3      4.49835037      4.59286550      0.92822393
        37        10         1      -0.9      0.97239863      0.95556378      2.86474260
        38        10         2       0.3      0.98960158      1.09277397      3.03584906
        39        10         2       0.3      1.13446407      0.91040760      2.86057088
        40        10         2       0.3      0.79313023      0.86350978      2.69780784
        41        11         1      -0.9      2.83129113      0.94358485      2.86472382
        42        11         2       0.3      2.98895338      1.06181702      2.96251834
        43        11         2       0.3      2.80527600      1.03458888      2.92058544
        44        11         2       0.3      2.69964401      0.73434864      2.71106770
        45        12         1      -0.9      4.74484110      0.95361679      2.84084739
        46        12         2       0.3      4.78620506      1.07733577      3.01799884
        47        12         2       0.3      4.88590196      0.97366526      2.81084078
        48        12         2       0.3      4.56241629      0.80984933      2.69370255
        49        13         1      -0.9      0.96722377      2.85163980      2.83640239
        50        13         2       0.3      1.12510571      2.99173373      2.89842646
        51        13         2       0.3      1.02967613      2.90481250      2.83892903
        52        13         2       0.3      0.74688947      2.65837319      2.77185169
        53        14         1      -0.9      2.86530689      2.84638867      2.87439181
        54        14         2       0.3      2.97427820      3.00825235      2.97600579
        55        14         2       0.3      2.93335137      2.77795286      2.96894718
        56        14         2       0.3      2.68829110      2.75296079      2.67822245
        57        15         1      -0.9      4.71000790      2.85821859      2.83679570
        58        15         2       0.3      4.84814438      2.89346959      3.00435370
        59        15         2       0.3      4.78472573      2.95004559      2.81339648
        60        15         2       0.3      4.49715359      2.73114060      2.69263693
        61        16         1      -0.9      0.94786669      4.73289290      2.84655470
        62        16         2       0.3      1.07714956      4.76595169      3.02146342
        63        16         2       0.3      0.90010657      4.90223452      2.79740159
        64        16         2       0.3      0.86634395      4.53049249      2.72079910
        65        17         1      -0.9      2.82535485      4.75362479      2.86014147
        66        17         2       0.3      2.86339294      4.76745358      3.07638639
        67        17         2       0.3      2.95893506      4.86071433      2.75608968
        68        17         2       0.3      2.65373656      4.63270645      2.74794832
        69        18         1      -0.9      4.75728975      4.76027318      2.84860189
        70        18         2       0.3      4.78671741      4.84084669      3.05118995
        71        18         2       0.3      4.91920690      4.79136097      2.74998572
        72        18         2       0.3      4.56594493      4.64861189      2.74463000
        73        19         1      -0.9      0.98773390      0.95594255      4.70582554
        74        19         2       0.3      1.10305066      1.12972075      4.77584826
        75        19         2       0.3      1.05851856      0.94669944      4.78817468
        76        19         2       0.3      0.80163249      0.79140747      4.55345367
        77        20         1      -0.9      2.83050080      0.94134454      4.71393541
        78        20         2       0.3      3.03648330      0.94953438      4.79077378
        79        20         2       0.3      2.73622399      0.99772889      4.85597763
        80        20         2       0.3      2.71879510      0.87677035      4.49505483
        81        21         1      -0.9      4.74788621      0.95247462      4.73732978
        82        21         2       0.3      4.92972964      0.98945119      4.85550634
        83        21         2       0.3      4.73999497      1.08865012      4.75230263
        84        21         2       0.3      4.57393402      0.77932254      4.60418037
        85        22         1      -0.9      0.95886562      2.85625391      4.73307396
        86        22         2       0.3      1.11929390      2.89836871      4.87760461
        87        22         2       0.3      0.92492399      2.98735148      4.76572632
        88        22         2       0.3      0.83237896      2.68304154      4.55589095
        89        23         1      -0.9      2.82600669      2.84973102      4.75819845
        90        23         2       0.3      2.86611465      3.06601939      4.76146868
        91        23         2       0.3      2.91589065      2.74425892      4.91214775
        92        23         2       0.3      2.69601478      2.73891476      4.60097892
        93        24         1      -0.9      4.72848378      2.85146022      4.71596428
        94        24         2       0.3      4.81809318      3.01532277      4.83223646
        95        24         2       0.3      4.82628209      2.77290167      4.78413340
        96        24         2       0.3      4.54107607      2.76615621      4.53152299
        97        25         1      -0.9      0.95745496      4.73574010      4.73792480
        98        25         2       0.3      1.00665089      4.94853093      4.76437896
        99        25         2       0.3      0.96020795      4.63826694      4.91303869
       100        25         2       0.3      0.90550602      4.62042243      4.53635676
       101        26         1      -0.9      2.85094638      4.73892522      4.74139463
       102        26         2       0.3      2.88334989      4.86951441      4.91545346
       103        26         2       0.3      2.95262630      4.81748339      4.69572088
       104        26         2       0.3      2.71686295      4.52977786      4.61300954
       105        27         1      -0.9      4.75294630      4.75692466      4.72246100
       106        27         2       0.3      4.77660202      4.91134908      4.87735937
       107        27         2       0.3      4.91732066      4.75116683      4.65713815
       108        27         2       0.3      4.56491621      4.60825808      4.63288548
       109        28         1      -0.9      1.89204468      1.90873307      0.95621849
       110        28         2       0.3      2.06241793      2.01153221      1.05005502
       111        28         2       0.3      1.84963577      1.93605493      1.07744601
       112        28         2       0.3      1.76408035      1.77861207      0.74115444
       113        29         1      -0.9      3.79448316      1.93203751      0.95997297
       114        29         2       0.3      4.00107388      1.96665080      1.02722021
       115        29         2       0.3      3.69381176      2.08917838      1.00290767
       116        29         2       0.3      3.68856383      1.74028334      0.84979102
       117        30         1      -0.9      5.67269588      1.92710831      0.97177835
       118        30         2       0.3      5.80524450      1.98306883      1.13820937
       119        30         2       0.3      5.71303101      2.05639077      0.90280592
       120        30         2       0.3      5.49981214      1.74186533      0.87431976
       121        31         1      -0.9      1.90449893      3.81547064      0.94459949
       122        31         2       0.3      2.03838605      3.88903686      1.10291010
       123        31         2       0.3      2.02433058      3.79704235      0.89827893
       124        31         2       0.3      1.65078016      3.76033271      0.83260943
       125        32         1      -0.9      3.77916347      3.80559555      0.95948203
       126        32         2       0.3      3.96708518      3.91460386      0.99416084
       127        32         2       0.3      3.73586939      3.93465114      0.94836345
       128        32         2       0.3      3.63453584      3.56753165      0.93592179
       129        33         1      -0.9      5.65168117      3.78623669      0.96055320
       130        33         2       0.3      5.70513232      3.90002131      1.14109692
       131        33         2       0.3      5.74315307      3.87327232      0.91045728
       132        33         2       0.3      5.50675814      3.58541643      0.83010540
       133        34         1      -0.9      1.89631912      5.69226229      0.95289573
       134        34         2       0.3      2.09483423      5.78002982      0.98879294
       135        34         2       0.3      1.81723125      5.80105685      1.04711892
       136        34         2       0.3      1.77689187      5.49570019      0.82277534
       137        35         1      -0.9      3.78692879      5.70058695      0.96044022
       138        35         2       0.3      3.92235953      5.82972809      1.07611684
       139        35         2       0.3      3.81209710      5.74137945      1.03133126
       140        35         2       0.3      3.62632973      5.53065332      0.77387257
       141        36         1      -0.9      5.67161656      5.68449353      0.95333947
       142        36         2       0.3      5.78803169      5.82170295      1.07991392
       143        36         2       0.3      5.62681024      5.79397824      0.95641914
       144        36         2       0.3      5.60000773      5.43779940      0.82368535
       145        37         1      -0.9      1.89006799      1.92854731      2.82537045
       146        37         2       0.3      2.06571972      1.96459198      2.95283516
       147        37         2       0.3      1.90737652      2.00401032      2.89011864
       148        37         2       0.3      1.69710773      1.81703964      2.63315755
       149        38         1      -0.9      3.79233982      1.88745708      2.83353751
       150        38         2       0.3      3.97011417      2.01557525      2.85308277
       151        38         2       0.3      3.73043493      1.86480442      3.00776886
       152        38         2       0.3      3.67647037      1.78199158      2.63976090
       153        39         1      -0.9      5.69983881      1.90845004      2.84148449
       154        39         2       0.3      5.82874881      2.03666732      2.96534950
       155        39         2       0.3      5.71628509      2.00568538      2.84056920
       156        39         2       0.3      5.55448253      1.68299740      2.71853478
       157        40         1      -0.9      1.89090176      3.80032647      2.84897326
       158        40         2       0.3      2.01072447      3.91892522      2.99031276
       159        40         2       0.3      1.99303462      3.83550220      2.81171200
       160        40         2       0.3      1.66894619      3.64655198      2.74489503
       161        41         1      -0.9      3.79653390      3.79279042      2.84457042
       162        41         2       0.3      3.87955939      3.88925738      3.02401649
       163        41         2       0.3      3.94420723      3.75014101      2.77669793
       164        41         2       0.3      3.56583507      3.73897288      2.73299683
       165        42         1      -0.9      5.67551650      3.81666065      2.87358970
       166        42         2       0.3      5.77668107      3.87584032      3.05977105
       167        42         2       0.3      5.67287638      3.97015294      2.80246453
       168        42         2       0.3      5.57699207      3.60398868      2.75853350
       169        43         1      -0.9      1.92473087      5.65801406      2.85898480
       170        43         2       0.3      2.00945662      5.85247639      2.91734536
       171        43         2       0.3      2.06733160      5.57773173      2.87224514
       172        43         2       0.3      1.69740440      5.54383408      2.78736392
       173        44         1      -0.9      3.78430607      5.66832071      2.87179189
       174        44         2       0.3      3.92827191      5.83463289      2.87554631
       175        44         2       0.3      3.86462842      5.67116459      2.94546009
       176        44         2       0.3      3.56001787      5.49916465      2.79436927
       177        45         1      -0.9      5.68225039      5.66287585      2.86942001
       178        45         2       0.3      5.87317494      5.76942257      2.89382519
       179        45         2       0.3      5.60125336      5.61306268      3.04716158
       180        45         2       0.3      5.57232286      5.60614229      2.66727326
       181        46         1      -0.9      1.91474349      1.93600261      4.72950286
       182        46         2       0.3      2.06585201      2.05457251      4.83677539
       183        46         2       0.3      1.97729919      1.92723364      4.79700196
       184        46         2       0.3      1.70107928      1.82620168      4.55473124
       185        47         1      -0.9      3.81704579      1.89186441      4.71328696
       186        47         2       0.3      3.82549715      2.11107219      4.72991587
       187        47         2       0.3      3.97976641      1.78412381      4.79676282
       188        47         2       0.3      3.64587380      1.78039721      4.61318220
       189        48         1      -0.9      5.69206322      1.91326525      4.75614672
       190        48         2       0.3      5.75881772      2.01927112      4.93699637
       191        48         2       0.3      5.69798267      2.03449880      4.73203492
       192        48         2       0.3      5.61938928      1.68602583      4.59940888
       193        49         1      -0.9      1.93383778      3.81966735      4.70577337
       194        49         2       0.3      2.07973144      3.98408721      4.71478168
       195        49         2       0.3      1.91444330      3.77457305      4.88030714
       196        49         2       0.3      1.80733859      3.70034180      4.52223130
       197        50         1      -0.9      3.81989751      3.82007148      4.71121816
       198        50         2       0.3      3.99376544      3.94858354      4.75189490
       199        50         2       0.3      3.77342954      3.86343807      4.84280042
       200        50         2       0.3      3.69249757      3.64819284      4.53895916
       201        51         1      -0.9      5.68868507      3.76530191      4.72160176
       202        51         2       0.3      5.72597161      3.94803755      4.83829537
       203        51         2       0.3      5.79290145      3.69534975      4.80729271
       204        51         2       0.3      5.54718214      3.65251842      4.51921719
       205        52         1      -0.9      1.89803871      5.67329989      4.71495153
       206        52         2       0.3      2.03281824      5.82674417      4.79673987
       207        52         2       0.3      1.96061026      5.71600462      4.74580192
       208        52         2       0.3      1.70068764      5.47715089      4.60231279
       209        53         1      -0.9      3.79401455      5.66394705      4.75816435
       210        53         2       0.3      3.88541583      5.82949603      4.87058918
       211        53         2       0.3      3.75593209      5.62864415      4.88631140
       212        53         2       0.3      3.74069572      5.53370097      4.51759248
       213        54         1      -0.9      5.67396966      5.68583412      4.73859611
       214        54         2       0.3      5.83408672      5.81396250      4.81825567
       215        54         2       0.3      5.62264146      5.73312761      4.85066774
       216        54         2       0.3      5.56518079      5.51041226      4.54686493
       217        55         1      -0.9      1.90291029      0.99284895      1.93798290
       218        55         2       0.3      1.96036612      1.09473364      2.12431148
       219        55         2       0.3      2.02423751      1.05598247      1.87257028
       220        55         2       0.3      1.72412725      0.82783074      1.81706695
       221        56         1      -0.9      3.78311088      0.94375191      1.92307287
       222        56         2       0.3      3.94163689      1.09629064      1.92427325
       223        56         2       0.3      3.76247306      0.91422415      2.09762493
       224        56         2       0.3      3.64522269      0.82074093      1.74732043
       225        57         1      -0.9      5.66325081      0.97751539      1.92705054
       226        57         2       0.3      5.78214556      1.08078916      2.08066879
       227        57         2       0.3      5.74259161      1.04040713      1.91285960
       228        57         2       0.3      5.46501526      0.81134989      1.78762323
       229        58         1      -0.9      1.92575178      2.83416740      1.93707927
       230        58         2       0.3      2.04081273      2.93293330      2.09647273
       231        58         2       0.3      1.98614988      2.93347022      1.87427614
       232        58         2       0.3      1.75029273      2.63609868      1.84048894
       233        59         1      -0.9      3.77641821      2.87867469      1.92810012
       234        59         2       0.3      3.85281758      2.88103712      2.13439495
       235        59         2       0.3      3.82079846      3.04891580      1.83469617
       236        59         2       0.3      3.65563857      2.70607113      1.81520926
       237        60         1      -0.9      5.68067627      2.83197559      1.93225137
       238        60         2       0.3      5.82548435      2.95289517      2.04542855
       239        60         2       0.3      5.70451782      2.93345364      1.90417452
       240        60         2       0.3      5.51202664      2.60957795      1.84715102
       241        61         1      -0.9      1.93824651      4.71954399      1.93459739
       242        61         2       0.3      2.08131607      4.88543549      1.95487329
       243        61         2       0.3      1.95686735      4.79303059      1.98529435
       244        61         2       0.3      1.77655611      4.48016590      1.86362454
       245        62         1      -0.9      3.77854426      4.73718766      1.93664830
       246        62         2       0.3      3.79390929      4.90836098      2.07399316
       247        62         2       0.3      3.95654489      4.68641964      1.89266249
       248        62         2       0.3      3.58517859      4.61678235      1.84328925
       249        63         1      -0.9      5.65133496      4.76015025      1.92781579
       250        63         2       0.3      5.71142600      4.88411252      2.09934545
       251        63         2       0.3      5.79110401      4.75544294      1.90672495
       252        63         2       0.3      5.45147488      4.64089530      1.77737698
       253        64         1      -0.9      1.90932769      0.98826240      3.76907804
       254        64         2       0.3      2.03831160      1.08557921      3.91838506
       255        64         2       0.3      1.97227542      1.08022258      3.71132240
       256        64         2       0.3      1.71739604      0.79898540      3.67752666
       257        65         1      -0.9      3.80576117      0.97644707      3.79112026
       258        65         2       0.3      3.87465381      1.12956976      3.93327246
       259        65         2       0.3      3.82698077      1.00209381      3.87089115
       260        65         2       0.3      3.71564892      0.79767764      3.56919718
       261        66         1      -0.9      5.67273858      0.95274998      3.76824443
       262        66         2       0.3      5.85755502      0.96848186      3.88654656
       263        66         2       0.3      5.60423635      1.08540354      3.83551636
       264        66         2       0.3      5.55642438      0.80436455      3.58267036
       265        67         1      -0.9      1.91950639      2.85578968      3.76826328
       266        67         2       0.3      2.03617638      2.97147981      3.91456402
       267        67         2       0.3      1.95553205      2.95651809      3.74255254
       268        67         2       0.3      1.76681073      2.63937114      3.64767328
       269        68         1      -0.9      3.81588155      2.85597825      3.76808050
       270        68         2       0.3      3.89675754      3.03126356      3.87359891
       271        68         2       0.3      3.96382363      2.79304311      3.72955111
       272        68         2       0.3      3.58706348      2.74362808      3.70109150
       273        69         1      -0.9      5.68395559      2.86819019      3.78080348
       274        69         2       0.3      5.78514147      3.05004456      3.85215057
       275        69         2       0.3      5.76628464      2.79707428      3.88018273
       276        69         2       0.3      5.50044067      2.75745174      3.61007713
       277        70         1      -0.9      1.89986550      4.71182804      3.81585203
       278        70         2       0.3      1.91824536      4.86732055      3.97039736
       279        70         2       0.3      2.02371288      4.73603758      3.82916683
       280        70         2       0.3      1.75763826      4.53212599      3.64799188
       281        71         1      -0.9      3.78427885      4.72161202      3.79182100
       282        71         2       0.3      3.86091800      4.91450228      3.86475788
       283        71         2       0.3      3.89209253      4.64720168      3.87560039
       284        71         2       0.3      3.59982602      4.60313209      3.63510473
       285        72         1      -0.9      5.66479718      4.74427717      3.80142596
       286        72         2       0.3      5.79212776      4.90244942      3.88609274
       287        72         2       0.3      5.62312786      4.70064686      3.94499324
       288        72         2       0.3      5.57913592      4.62973524      3.57319188
       289        73         1      -0.9      1.89213464      0.97721851      5.64714235
       290        73         2       0.3      2.04983592      1.04770932      5.78338240
       291        73         2       0.3      1.90812891      1.08907585      5.65429001
       292        73         2       0.3      1.71843909      0.79487035      5.50375464
       293        74         1      -0.9      3.77470343      0.99338290      5.67970395
       294        74         2       0.3      3.92667634      1.15139854      5.69801493
       295        74         2       0.3      3.75195130      0.93270710      5.85256507
       296        74         2       0.3      3.64548265      0.89604305      5.48853187
       297        75         1      -0.9      5.68083242      0.97326715      5.65243169
       298        75         2       0.3      5.80335853      1.07732745      5.80262757
       299        75         2       0.3      5.71958999      1.06908922      5.64393398
       300        75         2       0.3      5.51954872      0.77338476      5.51073352
       301        76         1      -0.9      1.93757519      2.86324280      5.66285379
       302        76         2       0.3      1.96577516      2.97452234      5.85052805
       303        76         2       0.3      2.00970941      2.97567250      5.59384240
       304        76         2       0.3      1.83724102      2.63953357      5.54419092
       305        77         1      -0.9      3.80218010      2.85599103      5.65191901
       306        77         2       0.3      3.95724384      2.93912295      5.78399596
       307        77         2       0.3      3.75616345      2.99226948      5.64652835
       308        77         2       0.3      3.69313300      2.63658067      5.52523272
       309        78         1      -0.9      5.65714418      2.85359387      5.66511684
       310        78         2       0.3      5.67462312      3.04923686      5.76420421
       311        78         2       0.3      5.81005750      2.77156211      5.71516763
       312        78         2       0.3      5.48675192      2.73998264      5.51597868
       313        79         1      -0.9      1.89282229      4.73472410      5.66830186
       314        79         2       0.3      2.02487006      4.83556454      5.81250516
       315        79         2       0.3      1.89104158      4.77882692      5.74864105
       316        79         2       0.3      1.76255524      4.58978083      5.44375937
       317        80         1      -0.9      3.80855575      4.74528195      5.66404394
       318        80         2       0.3      3.87562882      4.88090412      5.82375566
       319        80         2       0.3      3.90375668      4.78422950      5.67545288
       320        80         2       0.3      3.64628176      4.57071223      5.49292330
       321        81         1      -0.9      5.67540911      4.74958650      5.65960904
       322        81         2       0.3      5.68573176      4.96609969      5.69723192
       323        81         2       0.3      5.78624972      4.64731762      5.79181978
       324        81         2       0.3      5.55424586      4.63534219      5.48977542
       325        82         1      -0.9      0.95451672      1.88698129      1.88258873
       326        82         2       0.3      1.07472498      1.92510840      2.06285602
       327        82         2       0.3      1.05186239      1.97519917      1.79295748
       328        82         2       0.3      0.73696278      1.76063630      1.79195268
       329        83         1      -0.9      2.85207252      1.92435071      1.91465809
       330        83         2       0.3      2.88661477      1.96588623      2.12792233